24
	Energy:      16.4506341
C          3.00848       -0.45494       -0.71096
C          1.89400       -1.30066       -0.70502
C          2.06856       -2.68811       -0.69499
C          3.35808       -3.23124       -0.69088
C          4.47257       -2.38549       -0.69682
H          0.89646       -0.88053       -0.70267
H          1.20633       -3.34222       -0.68497
H          3.49315       -4.30460       -0.67773
C          4.29799       -0.99805       -0.70686
H          5.16018       -0.34381       -0.70591
H          2.87341        0.61851       -0.71314
H          5.47013       -2.80548       -0.68820
H          0.89378       -0.78039        2.64121
H          1.20373       -3.24206        2.65898
C          1.89135       -1.20038        2.64993
C          2.06593       -2.58782        2.66000
C          3.00584       -0.35462        2.64409
C          3.35543       -3.13093        2.66423
H          2.87076        0.71873        2.63090
H          3.49051       -4.20438        2.66643
C          4.29536       -0.89775        2.64832
C          4.46991       -2.28520        2.65839
H          5.15758       -0.24365        2.63836
H          5.46746       -2.70533        2.65613
