[Molden Format]
[Title]
                                                                                
[Atoms] AU
 c     1    6 -.65202461009372E+00 0.19461349202473E+01 -.29832102655862E+01
 c     2    6 -.26867855574673E+01 0.41562531996233E+00 -.36406981781319E+01
 c     3    6 -.22870150866704E+01 -.21038461334421E+01 -.42761657521522E+01
 c     4    6 0.15101433435794E+00 -.30921272693323E+01 -.42595136335715E+01
 c     5    6 0.21847177118833E+01 -.15590694355433E+01 -.36072665092504E+01
 h     6    1 -.45861489862492E+01 0.11833651210532E+01 -.36434501927135E+01
 h     7    1 -.38727419313931E+01 -.32973069602012E+01 -.47844844502309E+01
 h     8    1 0.46413878863658E+00 -.50555879423703E+01 -.47543876419389E+01
 c     9    6 0.17825941307349E+01 0.95918503567927E+00 -.29662420617397E+01
 h    10    1 0.33621991566436E+01 0.21449958752389E+01 -.24277819486637E+01
 h    11    1 -.96631866329930E+00 0.39003768146638E+01 -.24592979051611E+01
 h    12    1 0.40825848824952E+01 -.23302276696363E+01 -.35843434394680E+01
 h    13    1 -.40816664665165E+01 0.23323825674855E+01 0.35787213035667E+01
 h    14    1 -.33618273682267E+01 -.21428153970052E+01 0.24217702382258E+01
 c    15    6 -.21842187669524E+01 0.15602485936777E+01 0.36041826787849E+01
 c    16    6 -.17824025835634E+01 -.95799310606931E+00 0.29629030129479E+01
 c    17    6 -.15069114334777E+00 0.30921177049372E+01 0.42597548155999E+01
 c    18    6 0.65170863615663E+00 -.19461249771415E+01 0.29829384874683E+01
 h    19    1 -.46359724043073E+00 0.50555735461830E+01 0.47548059589273E+01
 h    20    1 0.96574628459454E+00 -.39003706367403E+01 0.24588765975503E+01
 c    21    6 0.22868312021657E+01 0.21026344426287E+01 0.42795267731144E+01
 c    22    6 0.26862786832869E+01 -.41681299155804E+00 0.36437649365521E+01
 h    23    1 0.38723862765708E+01 0.32951670934021E+01 0.47905253306585E+01
 h    24    1 0.45852383166844E+01 -.11855245161187E+01 0.36490718452119E+01
[FREQ]
 -.26870000000000E+02
 -.10320000000000E+02
 0.00000000000000E+00
 0.00000000000000E+00
 0.00000000000000E+00
 0.00000000000000E+00
 0.00000000000000E+00
 0.00000000000000E+00
 0.42900000000000E+02
 0.43550000000000E+02
 0.67830000000000E+02
 0.87730000000000E+02
 0.40358000000000E+03
 0.40502000000000E+03
 0.40560000000000E+03
 0.40737000000000E+03
 0.61093000000000E+03
 0.61167000000000E+03
 0.61194000000000E+03
 0.61210000000000E+03
 0.68148000000000E+03
 0.68688000000000E+03
 0.71583000000000E+03
 0.71705000000000E+03
 0.85928000000000E+03
 0.85947000000000E+03
 0.86101000000000E+03
 0.86501000000000E+03
 0.96486000000000E+03
 0.96536000000000E+03
 0.97011000000000E+03
 0.97272000000000E+03
 0.10007800000000E+04
 0.10020300000000E+04
 0.10168300000000E+04
 0.10175200000000E+04
 0.10228300000000E+04
 0.10229100000000E+04
 0.10619100000000E+04
 0.10624700000000E+04
 0.10624900000000E+04
 0.10626300000000E+04
 0.11724500000000E+04
 0.11726600000000E+04
 0.11977500000000E+04
 0.11983700000000E+04
 0.11984200000000E+04
 0.12000100000000E+04
 0.13532100000000E+04
 0.13547800000000E+04
 0.13840900000000E+04
 0.13842100000000E+04
 0.15166900000000E+04
 0.15169100000000E+04
 0.15172400000000E+04
 0.15174700000000E+04
 0.16372000000000E+04
 0.16379200000000E+04
 0.16381300000000E+04
 0.16384700000000E+04
 0.31522000000000E+04
 0.31522700000000E+04
 0.31618400000000E+04
 0.31621800000000E+04
 0.31648600000000E+04
 0.31653000000000E+04
 0.31789000000000E+04
 0.31796800000000E+04
 0.31800700000000E+04
 0.31804600000000E+04
 0.31916000000000E+04
 0.31919100000000E+04
[INT]
 0.00000000000000E+00
 0.00000000000000E+00
 0.00000000000000E+00
 0.00000000000000E+00
 0.00000000000000E+00
 0.00000000000000E+00
 0.00000000000000E+00
 0.00000000000000E+00
 0.25714000000000E+00
 0.32360000000000E-01
 0.81820000000000E-01
 0.20000000000000E-04
 0.13720000000000E-01
 0.41190000000000E-01
 0.00000000000000E+00
 0.00000000000000E+00
 0.17630000000000E-01
 0.00000000000000E+00
 0.13640000000000E-01
 0.00000000000000E+00
 0.23971518000000E+03
 0.77000000000000E-03
 0.10000000000000E-04
 0.17300000000000E-01
 0.00000000000000E+00
 0.10000000000000E-04
 0.15923000000000E+01
 0.26892100000000E+01
 0.69850000000000E+00
 0.13000000000000E-03
 0.53934000000000E+00
 0.10000000000000E-04
 0.10000000000000E-04
 0.10191000000000E+00
 0.14211000000000E+00
 0.00000000000000E+00
 0.80000000000000E-04
 0.75000000000000E-02
 0.11000000000000E-03
 0.10647000000000E+00
 0.65471200000000E+01
 0.71869400000000E+01
 0.00000000000000E+00
 0.21370000000000E-01
 0.23090000000000E+00
 0.19615000000000E+00
 0.00000000000000E+00
 0.00000000000000E+00
 0.48910000000000E-01
 0.00000000000000E+00
 0.00000000000000E+00
 0.43000000000000E-03
 0.13104040000000E+02
 0.35000000000000E-03
 0.18000000000000E-03
 0.13538580000000E+02
 0.88640000000000E-01
 0.57200000000000E-02
 0.00000000000000E+00
 0.00000000000000E+00
 0.22000000000000E-03
 0.99820000000000E-01
 0.27306800000000E+01
 0.74000000000000E-03
 0.55977800000000E+01
 0.12000000000000E-03
 0.14190000000000E-01
 0.68610910000000E+02
 0.45440000000000E-01
 0.68116070000000E+02
 0.70000000000000E-04
 0.51957200000000E+01
[FR-COORD]
 c  -.65202461009372E+00 0.19461349202473E+01 -.29832102655862E+01
 c  -.26867855574673E+01 0.41562531996233E+00 -.36406981781319E+01
 c  -.22870150866704E+01 -.21038461334421E+01 -.42761657521522E+01
 c  0.15101433435794E+00 -.30921272693323E+01 -.42595136335715E+01
 c  0.21847177118833E+01 -.15590694355433E+01 -.36072665092504E+01
 h  -.45861489862492E+01 0.11833651210532E+01 -.36434501927135E+01
 h  -.38727419313931E+01 -.32973069602012E+01 -.47844844502309E+01
 h  0.46413878863658E+00 -.50555879423703E+01 -.47543876419389E+01
 c  0.17825941307349E+01 0.95918503567927E+00 -.29662420617397E+01
 h  0.33621991566436E+01 0.21449958752389E+01 -.24277819486637E+01
 h  -.96631866329930E+00 0.39003768146638E+01 -.24592979051611E+01
 h  0.40825848824952E+01 -.23302276696363E+01 -.35843434394680E+01
 h  -.40816664665165E+01 0.23323825674855E+01 0.35787213035667E+01
 h  -.33618273682267E+01 -.21428153970052E+01 0.24217702382258E+01
 c  -.21842187669524E+01 0.15602485936777E+01 0.36041826787849E+01
 c  -.17824025835634E+01 -.95799310606931E+00 0.29629030129479E+01
 c  -.15069114334777E+00 0.30921177049372E+01 0.42597548155999E+01
 c  0.65170863615663E+00 -.19461249771415E+01 0.29829384874683E+01
 h  -.46359724043073E+00 0.50555735461830E+01 0.47548059589273E+01
 h  0.96574628459454E+00 -.39003706367403E+01 0.24588765975503E+01
 c  0.22868312021657E+01 0.21026344426287E+01 0.42795267731144E+01
 c  0.26862786832869E+01 -.41681299155804E+00 0.36437649365521E+01
 h  0.38723862765708E+01 0.32951670934021E+01 0.47905253306585E+01
 h  0.45852383166844E+01 -.11855245161187E+01 0.36490718452119E+01
[FR-NORM-COORD]
 vibration    1
 0.13978558120000E+00 0.19841160500000E-01 0.93825056000000E-02
 0.50908110500000E-01 0.12615462800000E+00 0.36936299000000E-01
 -.89252916700000E-01 0.10634862950000E+00 0.27543669900000E-01
 -.14037467570000E+00 -.20023342600000E-01 -.88271646000000E-02
 -.51097599500000E-01 -.12614428080000E+00 -.37752232000000E-01
 0.90600090100000E-01 0.22436080240000E+00 0.67157301800000E-01
 -.15848367360000E+00 0.18901249110000E+00 0.49332980700000E-01
 -.24910695890000E+00 -.35576585000000E-01 -.15926871200000E-01
 0.89010671800000E-01 -.10600459460000E+00 -.28551308300000E-01
 0.15843757880000E+00 -.18806832540000E+00 -.51315085300000E-01
 0.24796299200000E+00 0.34906300000000E-01 0.18013598900000E-01
 -.90633791700000E-01 -.22450246460000E+00 -.68267528900000E-01
 -.90308111300000E-01 -.22453239420000E+00 -.69002415500000E-01
 0.15906509680000E+00 -.18815176940000E+00 -.51717940700000E-01
 -.50766027900000E-01 -.12618609990000E+00 -.37974162600000E-01
 0.89513619600000E-01 -.10608068280000E+00 -.28599157800000E-01
 -.14020348600000E+00 -.20047220500000E-01 -.85729329000000E-02
 0.14030571530000E+00 0.19757441700000E-01 0.99398356000000E-02
 -.24906489140000E+00 -.35575726800000E-01 -.15800486400000E-01
 0.24861761110000E+00 0.34794810300000E-01 0.18696394200000E-01
 -.89068286800000E-01 0.10630683480000E+00 0.28446861500000E-01
 0.51269980500000E-01 0.12608350700000E+00 0.37985868800000E-01
 -.15842663180000E+00 0.18898087260000E+00 0.50622870000000E-01
 0.90975023700000E-01 0.22428072610000E+00 0.68706684700000E-01
 vibration    2
 -.10838210050000E+00 0.42774295000000E-01 -.88629598000000E-01
 -.72056017800000E-01 0.33750277700000E-01 -.18088698450000E+00
 -.38912083600000E-01 0.17570157400000E-01 -.96624266200000E-01
 -.42571328200000E-01 0.11239572700000E-01 0.79073629800000E-01
 -.79501751000000E-01 0.20476974600000E-01 0.17241071670000E+00
 -.69627181600000E-01 0.39528300600000E-01 -.32186969970000E+00
 -.10312868700000E-01 0.10273453800000E-01 -.16874310990000E+00
 -.17153399600000E-01 -.11751010000000E-02 0.14446118180000E+00
 -.11220538910000E+00 0.36208885000000E-01 0.88772652200000E-01
 -.14299659460000E+00 0.42527394900000E-01 0.16461573380000E+00
 -.13454460450000E+00 0.57314581200000E-01 -.15784840070000E+00
 -.83425171600000E-01 0.15313683200000E-01 0.31335737930000E+00
 0.84408809000000E-01 -.13938929000000E-01 -.31417134740000E+00
 0.14295055900000E+00 -.40783106400000E-01 -.16758264650000E+00
 0.80046846900000E-01 -.19701031800000E-01 -.17288357740000E+00
 0.11215801550000E+00 -.35239054000000E-01 -.90427333900000E-01
 0.43163911600000E-01 -.11423226600000E-01 -.77931468800000E-01
 0.10779018210000E+00 -.42582953600000E-01 0.87456723000000E-01
 0.18214031300000E-01 0.84838330000000E-03 -.14241918090000E+00
 0.13349082020000E+00 -.56959131100000E-01 0.15576041060000E+00
 0.38960207000000E-01 -.18536129200000E-01 0.98259066500000E-01
 0.71507030600000E-01 -.34540486000000E-01 0.18140888900000E+00
 0.10389449700000E-01 -.11984622300000E-01 0.17165574130000E+00
 0.68635661800000E-01 -.40932508000000E-01 0.32280242680000E+00
 vibration    3
 -.11388096760000E+00 0.24650187200000E-01 -.10836572840000E+00
 -.12212540260000E+00 0.99123212000000E-02 -.48544248500000E-01
 -.12092137020000E+00 0.16534092100000E-01 -.74040476500000E-01
 -.11165640650000E+00 0.37950733400000E-01 -.15947052950000E+00
 -.10360772900000E+00 0.52704813200000E-01 -.21924462270000E+00
 -.12898609080000E+00 -.68222671000000E-02 0.17999957000000E-01
 -.12720548130000E+00 0.50287483000000E-02 -.27423933000000E-01
 -.11070634530000E+00 0.43123355300000E-01 -.17939227130000E+00
 -.10461729110000E+00 0.46035213900000E-01 -.19367651910000E+00
 -.97269091700000E-01 0.57339694200000E-01 -.24012792260000E+00
 -.11378958050000E+00 0.19325744400000E-01 -.88450237900000E-01
 -.96049937400000E-01 0.69327911700000E-01 -.28575601260000E+00
 0.99685059100000E-01 -.37568504700000E-01 0.69184374000000E-02
 0.10089110640000E+00 -.25583208800000E-01 -.38691453500000E-01
 0.10733538410000E+00 -.20961474500000E-01 -.59583837400000E-01
 0.10833639470000E+00 -.14293342000000E-01 -.85141714600000E-01
 0.11550448580000E+00 -.62251477000000E-02 -.11935791210000E+00
 0.11771191370000E+00 0.70722622000000E-02 -.17044148400000E+00
 0.11456032410000E+00 -.11396707400000E-01 -.99443413900000E-01
 0.11761561550000E+00 0.12395172800000E-01 -.19034851470000E+00
 0.12488320770000E+00 0.15171819000000E-01 -.20477705660000E+00
 0.12607729840000E+00 0.21792175900000E-01 -.23026248780000E+00
 0.13126411330000E+00 0.26662588800000E-01 -.25139244360000E+00
 0.13303103310000E+00 0.38510753300000E-01 -.29679807710000E+00
 vibration    4
 0.37906297000000E-02 0.21913572650000E+00 0.35334767700000E-01
 0.29008068000000E-01 0.21434662080000E+00 -.31558761000000E-01
 0.65693401100000E-01 0.23772736500000E+00 -.10117900040000E+00
 0.77211222300000E-01 0.26609615830000E+00 -.10384795130000E+00
 0.52020229400000E-01 0.27102654620000E+00 -.36891063400000E-01
 0.19950522000000E-01 0.19194576810000E+00 -.29543688300000E-01
 0.85310176000000E-01 0.23387557380000E+00 -.15333109480000E+00
 0.10579679930000E+00 0.28432536290000E+00 -.15808697510000E+00
 0.15289279500000E-01 0.24745487360000E+00 0.32668044900000E-01
 -.45625135000000E-02 0.25034965220000E+00 0.84529513500000E-01
 -.24999482100000E-01 0.20004049700000E+00 0.89290617200000E-01
 0.60900363800000E-01 0.29281773390000E+00 -.39022617500000E-01
 -.71658524200000E-01 -.14030182500000E-01 0.96252962000000E-02
 -.61917418000000E-02 0.28442861900000E-01 -.11393198840000E+00
 -.62794257600000E-01 0.76815492000000E-02 0.74605764000000E-02
 -.26060702200000E-01 0.31257073200000E-01 -.62101477400000E-01
 -.88007094800000E-01 0.12512278500000E-01 0.74380680900000E-01
 -.14581192400000E-01 0.59480198700000E-01 -.64808369500000E-01
 -.11659452790000E+00 -.57195398000000E-02 0.12862192140000E+00
 0.14210579100000E-01 0.78576781500000E-01 -.11876709890000E+00
 -.76508743000000E-01 0.40783512800000E-01 0.71670974400000E-01
 -.39820515800000E-01 0.64169069600000E-01 0.20479512000000E-02
 -.96143477700000E-01 0.44554625700000E-01 0.12379397450000E+00
 -.30779064200000E-01 0.86490165100000E-01 0.00000000000000E+00
 vibration    5
 -.12920830790000E+00 -.27814512200000E-01 0.12510367750000E+00
 -.86656986100000E-01 -.81636651200000E-01 0.11870589060000E+00
 -.90234133000000E-02 -.50606124800000E-01 0.44516557400000E-01
 0.25943803400000E-01 0.34512918400000E-01 -.23316168700000E-01
 -.16785930800000E-01 0.88438144700000E-01 -.16832254700000E-01
 -.11364813260000E+00 -.14822265590000E+00 0.17149292110000E+00
 0.24231576500000E-01 -.92659697000000E-01 0.39511746300000E-01
 0.86450802500000E-01 0.58741322800000E-01 -.81159776700000E-01
 -.94282445800000E-01 0.57176374500000E-01 0.57364473500000E-01
 -.12675720030000E+00 0.98208742000000E-01 0.62268567900000E-01
 -.18889874190000E+00 -.52860809800000E-01 0.18272051910000E+00
 0.10667660600000E-01 0.15443201330000E+00 -.69685332300000E-01
 -.31352840100000E-01 -.32372775920000E+00 0.19366656920000E+00
 0.10606450870000E+00 -.26751325020000E+00 0.61722634200000E-01
 -.38219079000000E-02 -.25781651800000E+00 0.14079451010000E+00
 0.73669825600000E-01 -.22655870840000E+00 0.66603342800000E-01
 -.46453469600000E-01 -.20398641190000E+00 0.14724960700000E+00
 0.10868924780000E+00 -.14166769040000E+00 -.11588653000000E-02
 -.10695729160000E+00 -.22821189170000E+00 0.20508937840000E+00
 0.16837727510000E+00 -.11662639130000E+00 -.58771454300000E-01
 -.11391093400000E-01 -.11896862810000E+00 0.79393330500000E-01
 0.66236640200000E-01 -.87941565000000E-01 0.52101237000000E-02
 -.44568008500000E-01 -.76992776900000E-01 0.84376227100000E-01
 0.93305268200000E-01 -.21438081300000E-01 -.47596046900000E-01
 vibration    6
 -.14881356300000E+00 0.34470993900000E-01 0.37491576200000E-01
 -.18796793980000E+00 0.82814279500000E-01 0.46130418000000E-01
 -.24980007480000E+00 0.74966008600000E-01 0.38348483100000E-01
 -.27249363790000E+00 0.18705365000000E-01 0.21908647100000E-01
 -.23331125050000E+00 -.29602224200000E-01 0.13281509500000E-01
 -.17027882700000E+00 0.12662246500000E+00 0.58933265000000E-01
 -.28030618810000E+00 0.11263203590000E+00 0.45079368300000E-01
 -.32067823430000E+00 0.12551947300000E-01 0.15834814500000E-01
 -.17147457050000E+00 -.21711676200000E-01 0.21074627900000E-01
 -.14096799280000E+00 -.59301556500000E-01 0.14363163400000E-01
 -.10067115440000E+00 0.40588732600000E-01 0.43552382500000E-01
 -.25096082390000E+00 -.73419423700000E-01 0.48006790000000E-03
 -.10139741330000E+00 0.99406133100000E-01 0.58451771500000E-01
 -.21139194060000E+00 0.85301712500000E-01 0.44571939000000E-01
 -.11905459270000E+00 0.55593130800000E-01 0.45650686300000E-01
 -.18089247590000E+00 0.47710222500000E-01 0.37859399400000E-01
 -.79880106200000E-01 0.72824209000000E-02 0.37022015400000E-01
 -.20356274150000E+00 -.84673611000000E-02 0.21442879300000E-01
 -.31694581700000E-01 0.13430420700000E-01 0.43094556100000E-01
 -.25170611450000E+00 -.14578864200000E-01 0.15383569500000E-01
 -.10258308350000E+00 -.48973260000000E-01 0.20582561500000E-01
 -.16441639140000E+00 -.56813447300000E-01 0.12802573800000E-01
 -.72082648500000E-01 -.86641107900000E-01 0.13850681700000E-01
 -.18211292030000E+00 -.10061783300000E+00 0.00000000000000E+00
 vibration    7
 0.12401167650000E+00 0.71463756900000E-01 0.84412829000000E-01
 0.54761992600000E-01 0.16217599230000E+00 0.87562096600000E-01
 -.54915507300000E-01 0.15260536630000E+00 0.56509517900000E-01
 -.95367233000000E-01 0.52236688300000E-01 0.22281209800000E-01
 -.26063483000000E-01 -.38375531100000E-01 0.19169662700000E-01
 0.86285081700000E-01 0.24025859560000E+00 0.11420428850000E+00
 -.10887272250000E+00 0.22325512700000E+00 0.58956177500000E-01
 -.18083706860000E+00 0.44709501400000E-01 -.19337621000000E-02
 0.83617712500000E-01 -.28768172800000E-01 0.50231850900000E-01
 0.13755187070000E+00 -.99491632600000E-01 0.47761803300000E-01
 0.20938332590000E+00 0.78725640600000E-01 0.10853962060000E+00
 -.57532099000000E-01 -.11661432250000E+00 -.74949580000000E-02
 0.20330457820000E+00 0.14158930460000E+00 0.12172812620000E+00
 0.82178945000000E-02 0.12449328200000E+00 0.66476924100000E-01
 0.17182039740000E+00 0.63340359000000E-01 0.95057030000000E-01
 0.62137260000000E-01 0.53748387100000E-01 0.63997950600000E-01
 0.24110743360000E+00 -.27300519800000E-01 0.91934353400000E-01
 0.21724368100000E-01 -.46495786800000E-01 0.29809122200000E-01
 0.32657878260000E+00 -.19784217700000E-01 0.11614716280000E+00
 -.63648881200000E-01 -.53745520100000E-01 0.56847681000000E-02
 0.20063646030000E+00 -.12768202760000E+00 0.57697973400000E-01
 0.90957103500000E-01 -.13723620500000E+00 0.26648775600000E-01
 0.25458143340000E+00 -.19835364920000E+00 0.55242957600000E-01
 0.59418774900000E-01 -.21532978580000E+00 0.00000000000000E+00
 vibration    8
 -.11472729910000E+00 0.25556340600000E-01 0.72789625200000E-01
 -.90664785300000E-01 -.38910388600000E-01 0.14838871010000E+00
 -.40240700500000E-01 -.39415151700000E-01 0.18211158960000E+00
 -.14026807400000E-01 0.24545707100000E-01 0.14013901500000E+00
 -.38282689500000E-01 0.88894546100000E-01 0.64521629200000E-01
 -.11078244530000E+00 -.88563481600000E-01 0.18112540610000E+00
 -.21371312500000E-01 -.89585097500000E-01 0.24103952190000E+00
 0.25278006300000E-01 0.24199654400000E-01 0.16638157170000E+00
 -.88540525800000E-01 0.89433567100000E-01 0.30876651900000E-01
 -.10648076040000E+00 0.13996279820000E+00 -.27771378600000E-01
 -.15308867920000E+00 0.26372016200000E-01 0.46734158600000E-01
 -.17587653400000E-01 0.13885599640000E+00 0.31880020100000E-01
 0.33969950400000E-01 0.49009939600000E-01 0.14912681470000E+00
 0.12285296250000E+00 0.47882151400000E-01 0.20879100010000E+00
 0.54751891600000E-01 0.99004155500000E-01 0.11651216250000E+00
 0.10500321860000E+00 0.98452710200000E-01 0.15016435820000E+00
 0.30607513700000E-01 0.16340567580000E+00 0.40919504700000E-01
 0.13129508330000E+00 0.16236951380000E+00 0.10828402490000E+00
 -.86928876000000E-02 0.16376048240000E+00 0.14671747400000E-01
 0.16965294340000E+00 0.16154456610000E+00 0.13434576080000E+00
 0.56928296200000E-01 0.22740702880000E+00 -.10200938000000E-02
 0.10734463320000E+00 0.22688876160000E+00 0.32710187600000E-01
 0.38147996300000E-01 0.27761864750000E+00 -.59927882300000E-01
 0.12754949470000E+00 0.27657531530000E+00 0.00000000000000E+00
 vibration    9
 -.14730140000000E-03 0.11327338100000E-01 -.15905130080000E+00
 -.11327545100000E-01 -.31544423100000E-01 -.24758612200000E-01
 -.18291902300000E-01 -.63545944800000E-01 0.96879848300000E-01
 -.14005311800000E-01 -.52957004600000E-01 0.83889565400000E-01
 -.27515494000000E-02 -.10367954300000E-01 -.50820365900000E-01
 -.14481331800000E-01 -.39396071000000E-01 -.14565311600000E-01
 -.27148709700000E-01 -.96574940800000E-01 0.20201795080000E+00
 -.19197149200000E-01 -.77659154500000E-01 0.17862559600000E+00
 0.43038791000000E-02 0.21751619800000E-01 -.17168386620000E+00
 0.14918128000000E-01 0.56480521600000E-01 -.27826708050000E+00
 0.51118238000000E-02 0.38134504500000E-01 -.25501098800000E+00
 0.96597070000000E-03 -.14021689000000E-02 -.60810593300000E-01
 0.14889161000000E-01 0.40537644300000E-01 0.28113536100000E-01
 0.39269226900000E-01 0.12951259270000E+00 -.30450786370000E+00
 0.11186032100000E-01 0.31330825600000E-01 0.31139829500000E-01
 0.23897458700000E-01 0.80659208300000E-01 -.15370009020000E+00
 -.55061877000000E-02 -.28124364400000E-01 0.22266496750000E+00
 0.19480092400000E-01 0.69950550300000E-01 -.14761148180000E+00
 -.15189313600000E-01 -.66381912300000E-01 0.36830293460000E+00
 0.29194367200000E-01 0.11083450070000E+00 -.29328583380000E+00
 -.98024690000000E-02 -.38961167300000E-01 0.22904768560000E+00
 0.25918495000000E-02 0.96553845000000E-02 0.43953237700000E-01
 -.23220561200000E-01 -.85754739900000E-01 0.37982931310000E+00
 -.66741450000000E-03 0.15111749000000E-02 0.50161095400000E-01
 vibration   10
 0.37710499000000E-01 0.11233094610000E+00 -.46004907800000E-01
 0.22365173300000E-01 0.63280826900000E-01 0.11590823860000E+00
 0.89776802000000E-02 0.19543189100000E-01 0.28249356090000E+00
 0.10443648500000E-01 0.23644377700000E-01 0.28804115600000E+00
 0.25363144700000E-01 0.71583596000000E-01 0.12665067870000E+00
 0.21115000600000E-01 0.60049121600000E-01 0.11392661150000E+00
 -.32485183000000E-02 -.18868155500000E-01 0.41076821550000E+00
 -.39277460000000E-03 -.11514276000000E-01 0.42070211000000E+00
 0.39231399300000E-01 0.11652912050000E+00 -.40851848300000E-01
 0.52608017400000E-01 0.15641111640000E+00 -.16751479550000E+00
 0.48502409500000E-01 0.14929233560000E+00 -.17687095250000E+00
 0.26656495700000E-01 0.75200512800000E-01 0.13411960720000E+00
 -.20987050200000E-01 -.61174037600000E-01 -.14353537370000E+00
 -.30503887300000E-01 -.81821876800000E-01 -.68368655000000E-01
 -.22367185000000E-01 -.64117932300000E-01 -.13249020980000E+00
 -.27701832400000E-01 -.75468256900000E-01 -.90889791600000E-01
 -.18871230500000E-01 -.57090744600000E-01 -.16178740530000E+00
 -.29358730300000E-01 -.78816445300000E-01 -.80246979000000E-01
 -.14468991200000E-01 -.47911836400000E-01 -.19541981510000E+00
 -.33701373500000E-01 -.87863468600000E-01 -.48876644300000E-01
 -.20457853600000E-01 -.60632259100000E-01 -.15057065960000E+00
 -.25480946600000E-01 -.71123610800000E-01 -.11028347260000E+00
 -.17334066700000E-01 -.54220925400000E-01 -.17521478240000E+00
 -.26502719300000E-01 -.73560461800000E-01 -.10333849800000E+00
 vibration   11
 0.92636865000000E-02 0.26683183400000E-01 -.10011527880000E+00
 0.21021913000000E-01 0.49185792300000E-01 -.19013149910000E+00
 0.11594109300000E-01 0.21534905000000E-01 -.87569248500000E-01
 -.10202627600000E-01 -.29284520000000E-01 0.10616958630000E+00
 -.21844625000000E-01 -.50707401200000E-01 0.19166096030000E+00
 0.37199140600000E-01 0.88538330600000E-01 -.34232121730000E+00
 0.20726203600000E-01 0.39319948400000E-01 -.15771674880000E+00
 -.18589230300000E-01 -.51775718400000E-01 0.18994234630000E+00
 -.11828442000000E-01 -.22239600200000E-01 0.85016394000000E-01
 -.22951548400000E-01 -.39334527700000E-01 0.15446753170000E+00
 0.15564896800000E-01 0.50006496200000E-01 -.18230279120000E+00
 -.39402967900000E-01 -.89476165400000E-01 0.34412684980000E+00
 -.38996425800000E-01 -.87744247400000E-01 0.34156192470000E+00
 -.21463487900000E-01 -.35684306600000E-01 0.14510413750000E+00
 -.21260253400000E-01 -.49086175800000E-01 0.18950520820000E+00
 -.10674378600000E-01 -.19575746100000E-01 0.79135202500000E-01
 -.99853630000000E-02 -.28787718200000E-01 0.10828036980000E+00
 0.10618508500000E-01 0.29267391000000E-01 -.10549367870000E+00
 -.18847327700000E-01 -.52117931900000E-01 0.19505582300000E+00
 0.17393910500000E-01 0.53485638900000E-01 -.19067331880000E+00
 0.12075880300000E-01 0.21977959100000E-01 -.85119476900000E-01
 0.22057539400000E-01 0.50687841800000E-01 -.19149176150000E+00
 0.20953817300000E-01 0.38870753100000E-01 -.15199352690000E+00
 0.38451721200000E-01 0.90011955200000E-01 -.34342518360000E+00
 vibration   12
 0.29069975100000E-01 0.77140070000000E-01 -.24455236650000E+00
 0.15633785700000E-01 0.43296100400000E-01 -.12260232340000E+00
 0.24460447000000E-02 0.74526346000000E-02 0.98306257000000E-02
 0.17181839000000E-02 0.75194356000000E-02 0.14612409100000E-01
 0.16760048000000E-01 0.42753889900000E-01 -.11418914170000E+00
 0.16250990200000E-01 0.44599530400000E-01 -.12988151330000E+00
 -.83724784000000E-02 -.20470249700000E-01 0.10913505910000E+00
 -.96066442000000E-02 -.20346478900000E-01 0.11805356610000E+00
 0.30195650900000E-01 0.77115079300000E-01 -.24164418560000E+00
 0.43363262300000E-01 0.10828798910000E+00 -.34734379880000E+00
 0.40604142300000E-01 0.10831179750000E+00 -.35222252160000E+00
 0.17329670100000E-01 0.44357404800000E-01 -.11441840510000E+00
 -.18575443700000E-01 -.47168860300000E-01 0.12526294010000E+00
 -.44708519600000E-01 -.11016908680000E+00 0.35421769400000E+00
 -.17439993800000E-01 -.44330777900000E-01 0.12021096030000E+00
 -.30903608600000E-01 -.78161247800000E-01 0.24545923060000E+00
 -.16707121000000E-02 -.80290731000000E-02 -.12566593700000E-01
 -.29128403600000E-01 -.76688087400000E-01 0.24274108780000E+00
 0.96580355000000E-02 0.19427146500000E-01 -.11435424000000E+00
 -.40733885800000E-01 -.10744879360000E+00 0.34883542490000E+00
 -.16985139000000E-02 -.63346954000000E-02 -.13958650400000E-01
 -.14968046500000E-01 -.41737923000000E-01 0.11667103110000E+00
 0.97016460000000E-02 0.22485426000000E-01 -.11658391760000E+00
 -.15082485800000E-01 -.41811073200000E-01 0.11915572770000E+00
 vibration   13
 -.11182946500000E-01 -.25152432700000E-01 0.90120163000000E-01
 0.17751294600000E-01 0.43927859000000E-01 -.16090889830000E+00
 -.79851930000000E-02 -.18755246600000E-01 0.71676340300000E-01
 -.10048167500000E-01 -.23744023500000E-01 0.90869571600000E-01
 0.19582485300000E-01 0.43825103700000E-01 -.16153246830000E+00
 0.39023923000000E-01 0.96046161600000E-01 -.35665639190000E+00
 -.16928990300000E-01 -.42061432200000E-01 0.15423732580000E+00
 -.22459955700000E-01 -.51689654700000E-01 0.19397232600000E+00
 -.81943549000000E-02 -.19995661000000E-01 0.71209771200000E-01
 -.18680811900000E-01 -.43498801200000E-01 0.15336898140000E+00
 -.23107994200000E-01 -.55036177800000E-01 0.19398547340000E+00
 0.42979162200000E-01 0.95337064900000E-01 -.35716401760000E+00
 0.43905289700000E-01 0.96213648300000E-01 -.36001478560000E+00
 -.18743590700000E-01 -.43221110900000E-01 0.15208054970000E+00
 0.20003955800000E-01 0.44230880600000E-01 -.16284288010000E+00
 -.82348491000000E-02 -.19874283800000E-01 0.70648873500000E-01
 -.10414837700000E-01 -.24296279700000E-01 0.92803701400000E-01
 -.11557813100000E-01 -.25733451400000E-01 0.92115507900000E-01
 -.23250296900000E-01 -.52867486500000E-01 0.19808582570000E+00
 -.23910966200000E-01 -.56339086100000E-01 0.19837527870000E+00
 -.80237099000000E-02 -.18616519300000E-01 0.71101625200000E-01
 0.18157778700000E-01 0.44344774700000E-01 -.16221113120000E+00
 -.17012663900000E-01 -.41759728000000E-01 0.15294509720000E+00
 0.39930913300000E-01 0.96961435400000E-01 -.35956210490000E+00
 vibration   14
 -.15838253600000E-01 -.37351641000000E-01 0.13504990840000E+00
 -.19980936000000E-02 -.41799548000000E-02 0.13167679000000E-01
 0.16564485900000E-01 0.39046708000000E-01 -.14547045480000E+00
 -.15552282600000E-01 -.35837827000000E-01 0.13411745550000E+00
 -.95333490000000E-03 -.17991304000000E-02 0.89493181000000E-02
 -.36151493000000E-02 -.78909844000000E-02 0.26192193100000E-01
 0.36595247800000E-01 0.84276201500000E-01 -.31417609640000E+00
 -.33007525100000E-01 -.77840166800000E-01 0.28980821250000E+00
 0.17378420800000E-01 0.40198515600000E-01 -.14584632540000E+00
 0.41229630400000E-01 0.90409134400000E-01 -.32553434580000E+00
 -.33791230900000E-01 -.85015409100000E-01 0.30103939950000E+00
 -.27186821000000E-02 -.53502090000000E-02 0.24800579600000E-01
 -.29670860000000E-02 -.58046858000000E-02 0.26506877600000E-01
 0.41819070000000E-01 0.90703338600000E-01 -.32615367930000E+00
 -.10636384000000E-02 -.20053173000000E-02 0.97022467000000E-02
 0.17631328000000E-01 0.40329997900000E-01 -.14612131590000E+00
 -.15697284500000E-01 -.35727694700000E-01 0.13353996240000E+00
 -.15968225200000E-01 -.37210702700000E-01 0.13436759440000E+00
 -.33310648300000E-01 -.77594772500000E-01 0.28854640670000E+00
 -.34089306800000E-01 -.84698587700000E-01 0.29956722350000E+00
 0.16812666300000E-01 0.39158868400000E-01 -.14571503190000E+00
 -.21077011000000E-02 -.43988964000000E-02 0.13934941700000E-01
 0.37136009700000E-01 0.84500507700000E-01 -.31461813670000E+00
 -.38437538000000E-02 -.83507870000000E-02 0.27882465200000E-01
 vibration   15
 -.11656608500000E-01 -.26792935800000E-01 0.97163535500000E-01
 0.18285275300000E-01 0.44381911300000E-01 -.16091684150000E+00
 -.74774726000000E-02 -.17486519900000E-01 0.66075545300000E-01
 -.11190219900000E-01 -.26019509000000E-01 0.97476923900000E-01
 0.19290268300000E-01 0.44040213600000E-01 -.16107866740000E+00
 0.39646985300000E-01 0.96446254000000E-01 -.35419273060000E+00
 -.16151724200000E-01 -.38655786700000E-01 0.14263412460000E+00
 -.24228984700000E-01 -.56137435500000E-01 0.20859890260000E+00
 -.77866727000000E-02 -.18521808800000E-01 0.66989169800000E-01
 -.17489790700000E-01 -.43503844000000E-01 0.14989970560000E+00
 -.26549385200000E-01 -.61420721000000E-01 0.21660606530000E+00
 0.42574865500000E-01 0.95535250900000E-01 -.35392415200000E+00
 -.42706504600000E-01 -.94690084800000E-01 0.35032146100000E+00
 0.17332930500000E-01 0.42677003900000E-01 -.14675938490000E+00
 -.19353437400000E-01 -.43663895300000E-01 0.15947314140000E+00
 0.77224970000000E-02 0.18150689300000E-01 -.65574602400000E-01
 0.11319001400000E-01 0.25987658100000E-01 -.97243961900000E-01
 0.11784134800000E-01 0.26781526300000E-01 -.96992437700000E-01
 0.24490864500000E-01 0.56065800100000E-01 -.20808892210000E+00
 0.26833695000000E-01 0.61398540800000E-01 -.21627691190000E+00
 0.74170136000000E-02 0.17129841600000E-01 -.64646866100000E-01
 -.18350321000000E-01 -.43986362100000E-01 0.15928469910000E+00
 0.16017174800000E-01 0.37868917500000E-01 -.13953086010000E+00