16
	Energy:      -1.3256136
C         -1.52890       -1.93221       -1.90675
C         -1.15446       -0.63574       -1.20964
H         -1.81778       -2.69481       -1.15312
H         -0.66392       -2.30766       -2.49312
H         -2.38412       -1.75811       -2.59294
H         -0.29978       -0.80772       -0.52275
H         -2.01952       -0.26024       -0.62380
H         -0.86556        0.12665       -1.96323
C          0.83039       -4.75102       -0.70617
C          1.19823       -3.46733        0.01723
H          0.55740       -5.53411        0.03201
H          1.69318       -5.10332       -1.30963
H         -0.03330       -4.57287       -1.38006
H          2.06179       -3.64849        0.69117
H          0.33515       -3.11382        0.62004
H          1.47255       -2.68454       -0.72100
