[Molden Format]
[Title]
                                                                                
[Atoms] AU
 c     1    6 -.27231558704419E+01 0.16292688017541E+01 -.18814308462997E+01
 c     2    6 -.20282413666418E+01 0.40949233592861E+01 -.55238457455711E+00
 h     3    1 -.32592456455273E+01 0.17146590911997E+00 -.52025886979501E+00
 h     4    1 -.11361177192413E+01 0.90114322904353E+00 -.29844159355556E+01
 h     5    1 -.43132013423496E+01 0.18971463154022E+01 -.31722084900984E+01
 h     6    1 -.43873591079659E+00 0.38258050180033E+01 0.73801295291609E+00
 h     7    1 -.36155005852956E+01 0.48227712763207E+01 0.55087733316692E+00
 h     8    1 -.14914315352387E+01 0.55526230885310E+01 -.19137442312270E+01
 c     9    6 0.20332616954894E+01 -.40917370394447E+01 0.54391919710688E+00
 c    10    6 0.27181511171810E+01 -.16324568368206E+01 0.18898692064768E+01
 h    11    1 0.15122885113720E+01 -.55639839237839E+01 0.18957506058348E+01
 h    12    1 0.36201480173683E+01 -.48001152493652E+01 -.57247154805613E+00
 h    13    1 0.43602041320964E+00 -.38226086177608E+01 -.73688107935818E+00
 h    14    1 0.43149862492460E+01 -.19006638999295E+01 0.31721712370448E+01
 h    15    1 0.11310132610306E+01 -.92304184531210E+00 0.30048782978305E+01
 h    16    1 0.32397607106359E+01 -.16053958504417E+00 0.53831674457018E+00
[FREQ]
 -.45670000000000E+02
 0.00000000000000E+00
 0.00000000000000E+00
 0.00000000000000E+00
 0.00000000000000E+00
 0.00000000000000E+00
 0.00000000000000E+00
 0.16790000000000E+02
 0.24280000000000E+02
 0.41330000000000E+02
 0.45190000000000E+02
 0.54820000000000E+02
 0.30769000000000E+03
 0.30807000000000E+03
 0.81785000000000E+03
 0.81804000000000E+03
 0.81823000000000E+03
 0.81953000000000E+03
 0.99947000000000E+03
 0.99953000000000E+03
 0.12245400000000E+04
 0.12249600000000E+04
 0.12253300000000E+04
 0.12265400000000E+04
 0.14109900000000E+04
 0.14120900000000E+04
 0.14249100000000E+04
 0.14252100000000E+04
 0.15065800000000E+04
 0.15090800000000E+04
 0.15112200000000E+04
 0.15137100000000E+04
 0.15144200000000E+04
 0.15148000000000E+04
 0.15162000000000E+04
 0.15164100000000E+04
 0.30272100000000E+04
 0.30275900000000E+04
 0.30279100000000E+04
 0.30281900000000E+04
 0.30741000000000E+04
 0.30743600000000E+04
 0.30749800000000E+04
 0.30759100000000E+04
 0.30995300000000E+04
 0.30999700000000E+04
 0.31008800000000E+04
 0.31024600000000E+04
[INT]
 0.00000000000000E+00
 0.00000000000000E+00
 0.00000000000000E+00
 0.00000000000000E+00
 0.00000000000000E+00
 0.00000000000000E+00
 0.00000000000000E+00
 0.10000000000000E-04
 0.92000000000000E-03
 0.54000000000000E-03
 0.88500000000000E-02
 0.10000000000000E-03
 0.17760000000000E-01
 0.38600000000000E-02
 0.12546700000000E+01
 0.48637600000000E+01
 0.94607700000000E+01
 0.18200000000000E-02
 0.10000000000000E-04
 0.69570000000000E-01
 0.20000000000000E-04
 0.31000000000000E-03
 0.62340000000000E-01
 0.15100000000000E+00
 0.96318000000000E+00
 0.28000000000000E-03
 0.86554000000000E+00
 0.34100000000000E-02
 0.38408600000000E+01
 0.50000000000000E-03
 0.14340000000000E-01
 0.47281000000000E+00
 0.14582000000000E+00
 0.16971300000000E+02
 0.16522000000000E+00
 0.19532380000000E+02
 0.86900000000000E-02
 0.22076700000000E+01
 0.72434000000000E+00
 0.12069167000000E+03
 0.45000000000000E-03
 0.46233000000000E+00
 0.49000000000000E-03
 0.20552900000000E+01
 0.69140000000000E-01
 0.16840189000000E+03
 0.13129394000000E+03
 0.71000000000000E-02
[FR-COORD]
 c  -.27231558704419E+01 0.16292688017541E+01 -.18814308462997E+01
 c  -.20282413666418E+01 0.40949233592861E+01 -.55238457455711E+00
 h  -.32592456455273E+01 0.17146590911997E+00 -.52025886979501E+00
 h  -.11361177192413E+01 0.90114322904353E+00 -.29844159355556E+01
 h  -.43132013423496E+01 0.18971463154022E+01 -.31722084900984E+01
 h  -.43873591079659E+00 0.38258050180033E+01 0.73801295291609E+00
 h  -.36155005852956E+01 0.48227712763207E+01 0.55087733316692E+00
 h  -.14914315352387E+01 0.55526230885310E+01 -.19137442312270E+01
 c  0.20332616954894E+01 -.40917370394447E+01 0.54391919710688E+00
 c  0.27181511171810E+01 -.16324568368206E+01 0.18898692064768E+01
 h  0.15122885113720E+01 -.55639839237839E+01 0.18957506058348E+01
 h  0.36201480173683E+01 -.48001152493652E+01 -.57247154805613E+00
 h  0.43602041320964E+00 -.38226086177608E+01 -.73688107935818E+00
 h  0.43149862492460E+01 -.19006638999295E+01 0.31721712370448E+01
 h  0.11310132610306E+01 -.92304184531210E+00 0.30048782978305E+01
 h  0.32397607106359E+01 -.16053958504417E+00 0.53831674457018E+00
[FR-NORM-COORD]
 vibration    1
 -.32424708200000E-01 0.64695365000000E-02 -.13992523000000E-02
 0.22768900100000E-01 -.67973772000000E-02 -.55786125000000E-02
 0.22588605960000E+00 -.70315275700000E-01 0.17910637000000E-01
 -.14508431710000E+00 0.12743382550000E+00 -.24361453000000E+00
 -.22026887350000E+00 -.26674609100000E-01 0.22310940010000E+00
 0.20591378200000E+00 0.24256731700000E-01 -.22476912020000E+00
 0.13268927140000E+00 -.12322474240000E+00 0.22942863980000E+00
 -.22746036110000E+00 0.67622339300000E-01 -.24510467000000E-01
 0.19985470100000E-01 0.12881963000000E-02 -.62298438000000E-02
 -.10491305900000E-01 -.95765450000000E-03 0.13349300300000E-01
 -.24779932040000E+00 0.71951808900000E-01 -.32407659400000E-01
 0.12541776350000E+00 -.12671173330000E+00 0.22491780210000E+00
 0.20601658040000E+00 0.59656141500000E-01 -.22599019840000E+00
 -.20205614730000E+00 -.61989767900000E-01 0.23916236260000E+00
 -.11849272720000E+00 0.13217294640000E+00 -.22542169270000E+00
 0.26716446760000E+00 -.74209851100000E-01 0.40497592900000E-01
 vibration    2
 -.11952301750000E+00 -.26560766900000E-01 0.41073294900000E-01
 0.43927598600000E-01 0.19048669800000E-01 -.12900454520000E+00
 -.39147880000000E-01 0.47414546000000E-01 0.15195547370000E+00
 -.22637165050000E+00 -.11168852030000E+00 -.56470329200000E-01
 -.22009308780000E+00 -.50861885800000E-01 0.15991735940000E+00
 0.14443921780000E+00 0.43344200500000E-01 -.24774732860000E+00
 0.15079298850000E+00 0.10419391550000E+00 -.31429994000000E-01
 -.36465266900000E-01 -.54950960500000E-01 -.23994137290000E+00
 -.44555111000000E-01 -.19545003000000E-01 -.89399187700000E-01
 0.12014992240000E+00 0.27056677500000E-01 -.25835889930000E+00
 0.34734319800000E-01 0.53672772500000E-01 0.20897339100000E-01
 -.15207756020000E+00 -.10528263550000E+00 -.18783356990000E+00
 -.14427522880000E+00 -.43232518700000E-01 0.29980943600000E-01
 0.22001398890000E+00 0.50821759900000E-01 -.37774768850000E+00
 0.22758110880000E+00 0.11273660670000E+00 -.15995120240000E+00
 0.40876288300000E-01 -.46162243600000E-01 -.36869281920000E+00
 vibration    3
 -.30365139000000E-02 0.28472839410000E+00 0.11535905520000E+00
 0.65843500400000E-01 0.22443632070000E+00 0.19119817900000E+00
 -.23741071800000E-01 0.25156535780000E+00 0.71687371500000E-01
 -.30002733500000E-01 0.28519489660000E+00 0.76250555900000E-01
 -.89360350000000E-02 0.36424975140000E+00 0.13912960190000E+00
 0.71711050200000E-01 0.14494002540000E+00 0.16739124120000E+00
 0.92805940300000E-01 0.22396564070000E+00 0.23029946980000E+00
 0.86543944800000E-01 0.25758912680000E+00 0.23485970400000E+00
 -.11148517790000E+00 0.94788067900000E-01 -.11999772820000E+00
 -.42593569900000E-01 0.34161309500000E-01 -.44277937400000E-01
 -.13260773970000E+00 0.61590566600000E-01 -.16429260540000E+00
 -.13812400390000E+00 0.95705614400000E-01 -.15844551970000E+00
 -.11726300290000E+00 0.17414116940000E+00 -.96118317700000E-01
 -.36780633300000E-01 -.45232625400000E-01 -.68122799800000E-01
 -.15943875700000E-01 0.33295653800000E-01 -.57931861000000E-02
 -.21475958600000E-01 0.67334918000000E-01 0.00000000000000E+00
 vibration    4
 0.16361643750000E+00 0.44058369000000E-01 0.41552500100000E-01
 0.19076505200000E+00 0.87423188100000E-01 -.53093286500000E-01
 0.18416642280000E+00 0.90744187700000E-01 0.99646084100000E-01
 0.14348650600000E+00 0.41284657000000E-02 0.38947763600000E-01
 0.14209916800000E+00 0.36090642000000E-02 0.59664045400000E-01
 0.21227358120000E+00 0.12786071180000E+00 -.71153957500000E-01
 0.21089919700000E+00 0.12736278990000E+00 -.50475457300000E-01
 0.17021167920000E+00 0.40729755400000E-01 -.11119568170000E+00
 0.19454340930000E+00 0.11684029650000E+00 0.15258152090000E+00
 0.22196858850000E+00 0.16079101820000E+00 0.58320698500000E-01
 0.21490784780000E+00 0.16318491680000E+00 0.21090243920000E+00
 0.17422090650000E+00 0.76460495900000E-01 0.14931623880000E+00
 0.17319851250000E+00 0.76739147300000E-01 0.17077373380000E+00
 0.24334076540000E+00 0.20094333740000E+00 0.40104469600000E-01
 0.24226942520000E+00 0.20112487980000E+00 0.61555452700000E-01
 0.20160830510000E+00 0.11445460600000E+00 0.00000000000000E+00
 vibration    5
 0.20077799700000E+00 0.65586188500000E-01 -.18510388290000E+00
 0.24579517140000E+00 0.28704699400000E-01 -.14021912180000E+00
 0.10189695740000E+00 0.73234150400000E-01 -.21585671510000E+00
 0.21139919740000E+00 0.17432127700000E-01 -.13803302590000E+00
 0.25397541820000E+00 0.13471752850000E+00 -.23628821150000E+00
 0.19256537760000E+00 -.40403670000000E-01 -.89063786700000E-01
 0.23515454670000E+00 0.76864394000000E-01 -.18729984020000E+00
 0.34467877300000E+00 0.21032163000000E-01 -.10944295250000E+00
 -.89106256300000E-01 -.12869427040000E+00 -.74880241100000E-01
 -.44890078800000E-01 -.16535819840000E+00 -.30388484700000E-01
 -.18819867300000E+00 -.12151513710000E+00 -.10525017840000E+00
 -.77315013700000E-01 -.17672593970000E+00 -.27642345500000E-01
 -.36199130800000E-01 -.59387975800000E-01 -.12629586970000E+00
 -.97814213800000E-01 -.23466280060000E+00 0.21021505200000E-01
 -.56597076400000E-01 -.11730532840000E+00 -.77625808600000E-01
 0.54180949900000E-01 -.17256292930000E+00 0.00000000000000E+00
 vibration    6
 -.20412780600000E-01 -.59371090300000E-01 0.23069368550000E+00
 0.13289631680000E+00 -.45394117700000E-01 0.12460324720000E+00
 -.89074530000000E-02 0.52858690000000E-03 0.29937700600000E+00
 -.99490686500000E-01 -.15001717160000E+00 0.17675104910000E+00
 -.72039386300000E-01 -.39513584000000E-01 0.29841102660000E+00
 0.18445950720000E+00 -.65243154400000E-01 0.56948349900000E-01
 0.21197724980000E+00 0.45268238400000E-01 0.17856462520000E+00
 0.12137829090000E+00 -.10532565880000E+00 0.55888723300000E-01
 -.11401976350000E+00 -.16129915400000E+00 0.17383708840000E+00
 0.39860712800000E-01 -.14645528910000E+00 0.68412420000000E-01
 -.10348651200000E+00 -.10222836690000E+00 0.24222899240000E+00
 -.19301407170000E+00 -.25233673720000E+00 0.11931679860000E+00
 -.16512596670000E+00 -.14088325990000E+00 0.24185974300000E+00
 0.91072025800000E-01 -.16681186680000E+00 0.38180050000000E-03
 0.11882716040000E+00 -.55449438700000E-01 0.12291397000000E+00
 0.29328690900000E-01 -.20554106380000E+00 0.00000000000000E+00
 vibration    7
 0.88952320600000E-01 -.51324826800000E-01 0.55396585500000E-01
 0.18775874900000E-01 -.10557547710000E+00 0.19273566630000E+00
 0.11573836960000E+00 -.13779439430000E+00 -.26662008700000E-01
 0.11454246370000E+00 0.47293503700000E-01 0.27115156000000E-01
 0.91158110000000E-01 -.21303948300000E-01 0.58909671500000E-01
 0.16603424000000E-01 -.13558929250000E+00 0.18915216160000E+00
 -.68092868000000E-02 -.20421416800000E+00 0.22100065190000E+00
 -.80063332000000E-02 -.19077982400000E-01 0.27479364520000E+00
 0.21404732230000E+00 -.63922351800000E-01 -.21964601290000E+00
 0.14391298700000E+00 -.11933024120000E+00 -.82718349500000E-01
 0.24125512040000E+00 -.14951524070000E+00 -.30237772780000E+00
 0.23924015110000E+00 0.35413046100000E-01 -.24686665770000E+00
 0.21615378850000E+00 -.34616198400000E-01 -.21611495170000E+00
 0.14177341310000E+00 -.14872720480000E+00 -.86202650700000E-01
 0.11870394100000E+00 -.21859757730000E+00 -.55443679300000E-01
 0.11671144320000E+00 -.33736587800000E-01 0.00000000000000E+00
 vibration    8
 -.16173329430000E+00 0.57007439600000E-01 -.13514273020000E+00
 0.27979262000000E-01 -.74540498900000E-01 0.99357337000000E-02
 -.26085062130000E+00 0.13216351300000E-01 -.22098663320000E+00
 -.22458757410000E+00 0.90240252000000E-02 -.19401086060000E+00
 -.15212365450000E+00 0.25242318030000E+00 -.10659337050000E+00
 0.19443594400000E-01 -.26775005540000E+00 -.20320674700000E-01
 0.89684227400000E-01 -.27374506600000E-01 0.67594522500000E-01
 0.12131091140000E+00 -.30266054800000E-01 0.94115134300000E-01
 -.42559724900000E-01 0.76347864300000E-01 -.53286441000000E-02
 0.17631701750000E+00 -.58814316800000E-01 0.13051384870000E+00
 -.75528495700000E-01 0.18418728900000E-01 -.81103336100000E-01
 -.13819131310000E+00 0.50182704800000E-01 -.12467748640000E+00
 -.83055728800000E-01 0.26516252350000E+00 0.85373663700000E-01
 0.21505571240000E+00 -.25006504700000E+00 0.42441857200000E-01
 0.27264062070000E+00 -.31310922400000E-01 0.25032434560000E+00
 0.21616347030000E+00 -.16667456000000E-02 0.20810251430000E+00
 vibration    9
 0.81012882600000E-01 0.39170048800000E-01 -.11792629800000E+00
 -.73384934700000E-01 -.47746211700000E-01 0.12402852910000E+00
 0.11898833680000E+00 -.11115416320000E+00 -.26404969020000E+00
 0.14408675390000E+00 0.21760263790000E+00 -.14513504530000E+00
 0.99591361300000E-01 0.78414076500000E-01 -.13267365590000E+00
 -.86048782300000E-01 -.84913423600000E-01 0.13184542550000E+00
 -.13391248680000E+00 -.23107043730000E+00 0.15792078730000E+00
 -.11983333730000E+00 0.10543241730000E+00 0.26973326650000E+00
 -.79460111000000E-01 -.41823602500000E-01 0.11973776130000E+00
 0.71858148000000E-01 0.50375107800000E-01 -.12573525530000E+00
 -.13856203650000E+00 0.11553864650000E+00 0.26834691910000E+00
 -.13381382430000E+00 -.23372339100000E+00 0.16427597970000E+00
 -.83363934800000E-01 -.78695610300000E-01 0.11682214770000E+00
 0.81547564700000E-01 0.89677605300000E-01 -.12959967610000E+00
 0.12871796850000E+00 0.23737811250000E+00 -.16399474460000E+00
 0.12229277650000E+00 -.10419264730000E+00 -.27473977980000E+00
 vibration   10
 -.88354787200000E-01 0.15738692640000E+00 -.63415938600000E-01
 -.98125379400000E-01 0.15253731460000E+00 -.48790071600000E-01
 0.36688596300000E-01 0.10995119460000E+00 -.65070011700000E-01
 -.12589825990000E+00 0.23498310300000E+00 -.16911854610000E+00
 -.16966684110000E+00 0.13163520350000E+00 0.31308535500000E-01
 -.16365448700000E-01 0.17880568860000E+00 -.14357953280000E+00
 -.60877439400000E-01 0.73544085300000E-01 0.56924392700000E-01
 -.22509049630000E+00 0.20100480300000E+00 -.46944134500000E-01
 0.16260662170000E+00 -.19346194370000E+00 0.91042133500000E-01
 0.23952917300000E-01 -.11644482140000E+00 0.21232665100000E-01
 0.36630913190000E+00 -.22187487790000E+00 0.13855322260000E+00
 0.16158320840000E+00 -.69290185100000E-01 0.10799342600000E-01
 0.67618790600000E-01 -.34851443180000E+00 0.17607096790000E+00
 0.11807082330000E+00 0.38191118500000E-01 -.63547030300000E-01
 0.24613088700000E-01 -.23928533620000E+00 0.10065347480000E+00
 -.17793096910000E+00 -.89358612100000E-01 -.26870375000000E-01
 vibration   11
 0.11750396500000E+00 -.37448048300000E-01 0.41885763200000E-01
 -.13871365540000E+00 0.93301445600000E-01 -.66903514900000E-01
 0.33144257080000E+00 -.51701027000000E-01 0.11042487340000E+00
 0.17267080050000E+00 0.11235909440000E+00 0.22433796000000E-01
 0.48123795300000E-01 -.27408702540000E+00 0.78244738200000E-01
 -.65729423800000E-01 0.33001734510000E+00 -.10660655440000E+00
 -.19191018750000E+00 -.59764239500000E-01 -.42472297100000E-01
 -.35708831220000E+00 0.11045380640000E+00 -.13457450740000E+00
 -.95346096000000E-01 0.29792860000000E-01 -.39404744900000E-01
 0.11636624650000E+00 -.85647764100000E-01 0.64161992200000E-01
 -.15121806480000E+00 -.38527674000000E-02 -.97532779000000E-01
 -.17997156230000E+00 -.21184905400000E-01 -.12737688550000E+00
 -.11832003440000E+00 0.20405167400000E+00 0.26449812000000E-01
 0.14123510880000E+00 -.26001852020000E+00 -.32555789000000E-02
 0.20211209640000E+00 -.35294979000000E-01 0.15460837100000E+00
 0.17091180550000E+00 -.50960501000000E-01 0.12276122860000E+00
 vibration   12
 0.39954257100000E-01 -.18114558200000E-01 -.32376881300000E-01
 0.53221777600000E-01 -.47266910800000E-01 0.14779205100000E-01
 0.28759141570000E+00 -.12022157640000E+00 -.44698048300000E-01
 -.49004093500000E-01 0.13204601810000E+00 -.26010213690000E+00
 -.12960628300000E+00 -.43395158100000E-01 0.17126400950000E+00
 0.22735719290000E+00 -.19799362200000E-01 -.19445788600000E+00
 0.14437561480000E+00 -.20446871290000E+00 0.24966970560000E+00
 -.20406480470000E+00 0.59366412600000E-01 0.27526676000000E-01
 -.29032337100000E-01 0.34251263300000E-01 -.29155658000000E-02
 -.64108024100000E-01 0.31131664700000E-01 0.20550645100000E-01
 0.24553713860000E+00 -.64300851300000E-01 -.44712738000000E-02
 -.10412754350000E+00 0.20680750210000E+00 -.21918575380000E+00
 -.19921094830000E+00 -.36651028300000E-01 0.19467108370000E+00
 0.10107415390000E+00 0.99909660900000E-01 -.17078786630000E+00
 0.80883454000000E-02 -.13407616240000E+00 0.22897729270000E+00
 -.32843528020000E+00 0.12476587240000E+00 0.21148496500000E-01
 vibration   13
 0.14248749000000E-02 0.10761250000000E-03 -.38612060000000E-03
 -.16727304000000E-02 0.29461430000000E-03 0.82328500000000E-03
 0.13019128380000E+00 -.40322409100000E-01 0.71714417000000E-02
 -.40284918400000E-01 0.70859950400000E-01 -.10686024160000E+00
 -.84207507700000E-01 -.30611453100000E-01 0.98727082700000E-01
 -.93572524400000E-01 -.30437321400000E-01 0.10779155680000E+00
 -.48762002600000E-01 0.73948075900000E-01 -.11550772680000E+00
 0.13646767140000E+00 -.42306590400000E-01 0.96854717000000E-02
 -.10168301000000E-02 -.58783660000000E-03 0.92655360000000E-03
 0.11448104000000E-02 0.95711500000000E-04 -.12537357000000E-02
 0.36721312400000E+00 -.11208243170000E+00 0.21365877900000E-01
 -.12655255270000E+00 0.19885479790000E+00 -.30409544870000E+00
 -.24427501090000E+00 -.88424269900000E-01 0.28589114960000E+00
 -.23974777910000E+00 -.86932164900000E-01 0.28052970990000E+00
 -.12114988020000E+00 0.20049455960000E+00 -.30320068110000E+00
 0.36610855160000E+00 -.11196950020000E+00 0.17191239400000E-01
 vibration   14
 -.89724970000000E-03 0.79565500000000E-04 0.92384090000000E-03
 0.93709900000000E-04 0.57173210000000E-03 -.49381840000000E-03
 -.36895437790000E+00 0.11542520330000E+00 -.19968816900000E-01
 0.12079156530000E+00 -.20032450650000E+00 0.30890436730000E+00
 0.24439131390000E+00 0.83773031400000E-01 -.28385883760000E+00
 0.24280792260000E+00 0.83484420900000E-01 -.28212816600000E+00
 0.12111649190000E+00 -.19540135580000E+00 0.30295103560000E+00
 -.36291603860000E+00 0.11331056660000E+00 -.22871558800000E-01
 0.10661152000000E-02 -.40024580000000E-03 -.40321280000000E-03
 -.24103550000000E-03 -.21286010000000E-03 -.80181700000000E-04
 0.12955857970000E+00 -.39811457200000E-01 0.61522014000000E-02
 -.41997948200000E-01 0.70107219200000E-01 -.10638834040000E+00
 -.84384759500000E-01 -.31428314400000E-01 0.99520859600000E-01
 -.91613442700000E-01 -.32313713400000E-01 0.10698549110000E+00
 -.47216948200000E-01 0.75187894400000E-01 -.11549439350000E+00
 0.13816096780000E+00 -.42464087500000E-01 0.68321477000000E-02
 vibration   15
 0.24828774700000E-01 -.95911592000000E-02 0.44990215000000E-02
 0.24229103500000E-01 -.89619645000000E-02 0.42447521000000E-02
 -.12243102050000E+00 0.11501660500000E-01 -.31861068600000E-01
 -.14115268050000E+00 -.15249908840000E+00 -.13448371820000E+00
 -.26146284000000E-01 0.25106288460000E+00 0.11645881150000E+00
 -.26526181300000E-01 0.24954614540000E+00 0.11606144810000E+00
 -.14111991440000E+00 -.15113509500000E+00 -.13485356720000E+00
 -.12307680300000E+00 0.12141913200000E-01 -.31950199100000E-01
 -.14720174500000E-01 0.20325334400000E-01 -.30007025500000E-01
 -.15281787800000E-01 0.21072101800000E-01 -.30536397500000E-01
 0.16103590690000E+00 0.22318173360000E+00 0.26485784370000E+00
 0.72146874600000E-01 -.74673402400000E-01 0.15311738220000E+00
 -.55975068800000E-01 -.39510793110000E+00 -.59160669800000E-01
 -.56411307500000E-01 -.39599701280000E+00 -.59486836400000E-01
 0.71768368000000E-01 -.74428229100000E-01 0.15335001270000E+00
 0.16081442300000E+00 0.22418952480000E+00 0.26520440660000E+00
 vibration   16
 0.12043210800000E-01 0.12425528000000E-01 -.29294867700000E-01
 0.12330679700000E-01 0.12032168600000E-01 -.28929091900000E-01
 0.36642412300000E-01 0.26643917110000E+00 0.25898952840000E+00
 -.86476765600000E-01 -.26070368970000E+00 0.14266216900000E-01
 -.96891336800000E-01 -.15157475680000E+00 0.73122830700000E-01
 -.96361472000000E-01 -.15084451670000E+00 0.73011192100000E-01
 -.85783220700000E-01 -.26042480900000E+00 0.14654128600000E-01
 0.36861130700000E-01 0.26549063690000E+00 0.25833951170000E+00
 0.30362006400000E-01 -.88416240000000E-03 -.13669121800000E-01
 0.30610537600000E-01 -.11046987000000E-02 -.13681942800000E-01
 -.94538382100000E-01 0.17058420670000E+00 0.12810104310000E+00
 -.18407590730000E+00 -.30110024420000E+00 -.12038795310000E+00
 -.83668033200000E-01 0.14273612860000E+00 0.15557588780000E+00
 -.83989285400000E-01 0.14304029300000E+00 0.15594335710000E+00
 -.18458336260000E+00 -.30215225090000E+00 -.12052420880000E+00
 -.94139088000000E-01 0.17076718610000E+00 0.12863569160000E+00
 vibration   17
 0.28192844600000E-01 -.18668962800000E-01 0.20208562500000E-01
 0.27823377100000E-01 -.18435163000000E-01 0.19849426800000E-01
 -.18924827340000E+00 -.11178337720000E+00 -.16859353270000E+00
 -.15455144810000E+00 -.83889034600000E-01 -.19585843920000E+00
 0.98110394000000E-02 0.41697526810000E+00 0.12579487660000E+00
 0.98911305000000E-02 0.41833813020000E+00 0.12577199160000E+00
 -.15468021330000E+00 -.85200823400000E-01 -.19455660920000E+00
 -.18825788880000E+00 -.11207535650000E+00 -.16926288630000E+00
 0.20496561500000E-01 -.12486346700000E-01 0.12395264700000E-01
 0.20647648700000E-01 -.12430309100000E-01 0.12598932500000E-01
 -.13131937910000E+00 -.66151553800000E-01 -.10676217910000E+00
 -.11402434160000E+00 -.73347227600000E-01 -.13716658360000E+00
 0.73288640000000E-03 0.28763906760000E+00 0.95049480400000E-01
 0.34406580000000E-03 0.28562259370000E+00 0.95120183300000E-01
 -.11401085600000E+00 -.71719422700000E-01 -.13869477210000E+00
 -.13246772870000E+00 -.65357587100000E-01 -.10601496760000E+00
 vibration   18
 -.24268496800000E-01 -.52692756000000E-02 0.22423230500000E-01
 -.24473414700000E-01 -.53704892000000E-02 0.22799509800000E-01
 0.38491230900000E-01 -.23725125750000E+00 -.20618263160000E+00
 0.15522186120000E+00 0.31251304070000E+00 0.63833451200000E-01
 0.97743100700000E-01 -.12017368100000E-01 -.12844229370000E+00
 0.98776271800000E-01 -.11358334400000E-01 -.12952988580000E+00
 0.15640281660000E+00 0.31242562790000E+00 0.66212844000000E-01
 0.36505424500000E-01 -.23763612400000E+00 -.20683883740000E+00
 0.23687510600000E-01 0.58307535000000E-02 -.22701817300000E-01
 0.23422381500000E-01 0.57230678000000E-02 -.22385533900000E-01
 -.34445448400000E-01 0.23332401310000E+00 0.20763137430000E+00
 -.15059739530000E+00 -.30716939630000E+00 -.64908470400000E-01
 -.96818422400000E-01 0.50738961000000E-02 0.12672677750000E+00
 -.95960673400000E-01 0.56766956000000E-02 0.12552785400000E+00
 -.14952032700000E+00 -.30736427500000E+00 -.62499997500000E-01
 -.36351004700000E-01 0.23289142190000E+00 0.20685649400000E+00
 vibration   19
 -.56408416800000E-01 -.20081198580000E+00 -.10808162300000E+00
 0.56403263200000E-01 0.20039966060000E+00 0.10792290050000E+00
 -.59535800200000E-01 -.21834068250000E+00 -.12471810840000E+00
 -.67792450300000E-01 -.22145661200000E+00 -.11500103290000E+00
 -.57468454400000E-01 -.22313325500000E+00 -.11556775220000E+00
 0.57325903000000E-01 0.22404083340000E+00 0.11587940510000E+00
 0.69190775500000E-01 0.22138473640000E+00 0.11735110550000E+00
 0.61821724600000E-01 0.21908571100000E+00 0.12613102160000E+00
 -.54211071200000E-01 -.19495527610000E+00 -.10660377590000E+00
 0.54219746300000E-01 0.19537121370000E+00 0.10676564990000E+00
 -.59609359200000E-01 -.21308587370000E+00 -.12455675650000E+00
 -.66571673500000E-01 -.21549145440000E+00 -.11584405560000E+00
 -.54944732800000E-01 -.21793550960000E+00 -.11460553450000E+00
 0.55264074800000E-01 0.21699308180000E+00 0.11407551730000E+00
 0.65264072900000E-01 0.21549505510000E+00 0.11370138540000E+00
 0.57013956000000E-01 0.21240092350000E+00 0.12311725260000E+00
 vibration   20
 -.54888606800000E-01 -.19543711270000E+00 -.10522416610000E+00
 0.55157865600000E-01 0.19563503790000E+00 0.10550059320000E+00
 -.61281934900000E-01 -.21258425330000E+00 -.12210832780000E+00
 -.67203005200000E-01 -.21455587230000E+00 -.11527971920000E+00
 -.55936627700000E-01 -.22100105080000E+00 -.11315397420000E+00
 0.56166567000000E-01 0.21864489030000E+00 0.11317143570000E+00
 0.65974755300000E-01 0.21499576520000E+00 0.11283456750000E+00
 0.58797425800000E-01 0.21238876720000E+00 0.12119555180000E+00
 0.55714899000000E-01 0.20002681830000E+00 0.10954708090000E+00
 -.55440568900000E-01 -.19987120450000E+00 -.10927871260000E+00
 0.59646831700000E-01 0.21703496900000E+00 0.12577768790000E+00
 0.66922413600000E-01 0.22016677240000E+00 0.11730082160000E+00
 0.56638611000000E-01 0.22346028310000E+00 0.11754325850000E+00
 -.56549350600000E-01 -.22619172140000E+00 -.11744994700000E+00
 -.67905711600000E-01 -.21922842660000E+00 -.11968099810000E+00
 -.61747476900000E-01 -.21734295530000E+00 -.12664223630000E+00
 vibration   21
 0.86968822000000E-01 -.40546538100000E-01 0.31037095700000E-01
 -.86744785400000E-01 0.40541578000000E-01 -.30822145000000E-01
 -.18736836590000E+00 -.27338066800000E-01 -.65832528600000E-01
 -.12529935870000E+00 -.13509380070000E+00 -.20276974040000E+00
 0.24774017500000E-01 0.29325009950000E+00 0.16626461790000E+00
 -.24479694700000E-01 -.29665287720000E+00 -.16742214870000E+00
 0.12526529440000E+00 0.13551782150000E+00 0.20278079300000E+00
 0.18795883720000E+00 0.28316844900000E-01 0.67259606900000E-01
 0.89563780200000E-01 -.42229141000000E-01 0.32508721800000E-01
 -.89816242800000E-01 0.42220289900000E-01 -.32723070400000E-01
 -.19515383060000E+00 -.34470266100000E-01 -.71903478600000E-01
 -.12899211430000E+00 -.13502913990000E+00 -.21044212140000E+00
 0.26114694500000E-01 0.30798367890000E+00 0.17430564950000E+00
 -.26062085400000E-01 -.30429969300000E+00 -.17343234170000E+00
 0.12894898960000E+00 0.13466211780000E+00 0.21058019460000E+00
 0.19463234510000E+00 0.33317857500000E-01 0.70604321900000E-01
 vibration   22
 0.49933210400000E-01 0.29682037200000E-01 -.81517584800000E-01
 -.49875424300000E-01 -.29535039000000E-01 0.81486763300000E-01
 0.11466320700000E-01 0.27767113050000E+00 0.17929705660000E+00
 -.55190760600000E-01 -.28352439620000E+00 -.15607790900000E-01
 -.12364466290000E+00 -.92577507600000E-01 0.10885118640000E+00
 0.12377427940000E+00 0.93448879000000E-01 -.10865291700000E+00
 0.52962746100000E-01 0.28182094780000E+00 0.14283159300000E-01
 -.11084831100000E-01 -.27754367600000E+00 -.17842436900000E+00
 0.42592878500000E-01 0.36439659100000E-01 -.88669033900000E-01
 -.42607853900000E-01 -.36582265600000E-01 0.88738408300000E-01
 0.30355925500000E-01 0.29293691580000E+00 0.19649047540000E+00
 -.40942655700000E-01 -.28220222470000E+00 0.39588689000000E-02
 -.13112471760000E+00 -.13145818470000E+00 0.95817273000000E-01
 0.13116448120000E+00 0.13035113450000E+00 -.95925658300000E-01
 0.42991521000000E-01 0.28393549010000E+00 -.32392668000000E-02
 -.31237785500000E-01 -.29291084110000E+00 -.19730742000000E+00
 vibration   23
 0.74924328300000E-01 -.50550905600000E-01 0.54403633500000E-01
 -.74795047900000E-01 0.50620363200000E-01 -.54234574600000E-01
 -.19613108790000E+00 -.10555882660000E+00 -.11686960340000E+00
 -.11237537680000E+00 -.57756414000000E-01 -.20429028260000E+00
 0.59977129700000E-01 0.33073017740000E+00 0.14044323000000E+00
 -.59820663800000E-01 -.33234571520000E+00 -.14142103720000E+00
 0.11194759400000E+00 0.57976143300000E-01 0.20315254000000E+00
 0.19507788960000E+00 0.10583668230000E+00 0.11710547950000E+00
 -.77037512300000E-01 0.45376752100000E-01 -.42972471700000E-01
 0.77175037900000E-01 -.45228524600000E-01 0.43139335600000E-01
 0.18526176340000E+00 0.73764684500000E-01 0.93649633700000E-01
 0.11258140180000E+00 0.82752372800000E-01 0.19579077610000E+00
 -.43480667400000E-01 -.30783807180000E+00 -.14848000310000E+00
 0.43479435400000E-01 0.30639578850000E+00 0.14776673500000E+00
 -.11330370910000E+00 -.83064360300000E-01 -.19719337990000E+00
 -.18639301700000E+00 -.73486435200000E-01 -.93657004300000E-01
 vibration   24
 -.64210392700000E-01 -.23571905400000E-01 0.77345151900000E-01
 0.64151905500000E-01 0.23577880700000E-01 -.77210231100000E-01
 0.16176125100000E-01 -.27772414180000E+00 -.17228979380000E+00
 0.76965756700000E-01 0.30886409480000E+00 0.50117061900000E-01
 0.11768832790000E+00 0.46026887700000E-01 -.13254915360000E+00
 -.11702118040000E+00 -.46300418800000E-01 0.13177249720000E+00
 -.79327956500000E-01 -.30911872450000E+00 -.52883232500000E-01
 -.13863403300000E-01 0.27835630400000E+00 0.17416197950000E+00
 0.63135532200000E-01 0.23429625600000E-01 -.74924320500000E-01
 -.63196082000000E-01 -.23507457600000E-01 0.75039830000000E-01
 -.16702894700000E-01 0.26944969540000E+00 0.17136056520000E+00
 -.77187629200000E-01 -.30297307610000E+00 -.56312981400000E-01
 -.11270969920000E+00 -.42962510400000E-01 0.13063913230000E+00
 0.11355251280000E+00 0.42765078200000E-01 -.13133009360000E+00
 0.74993600200000E-01 0.30299458160000E+00 0.53401816000000E-01
 0.18854907200000E-01 -.26852151360000E+00 -.16907196840000E+00
 vibration   25
 0.16931658900000E-01 0.61280550800000E-01 0.32783800600000E-01
 0.13659363400000E-01 0.48780510800000E-01 0.26296309700000E-01
 -.40400970700000E-01 -.18792568660000E+00 -.23923493980000E+00
 -.18099036890000E+00 -.23631580490000E+00 -.77181862600000E-01
 0.23604620000000E-01 -.29652629790000E+00 -.67966575000000E-01
 0.18966943900000E-01 -.24575450590000E+00 -.57170294700000E-01
 -.14870751910000E+00 -.19165706830000E+00 -.67201012500000E-01