           Doing BLAS/Lapack in the master proc. with  8 CPUs.
           SMPCPUS    set: Shared-memory Parallelization with   8 CPUs.

           SMP Parallelization Reference:
           C. van Wullen, J. Comput. Chem. 32 (2011) 1195--1201

 force (c-13-41) : TURBOMOLE V7.2 ( 21454 ) 4 Oct 2017 at 12:48:15
 Copyright (C) 2017 TURBOMOLE GmbH, Karlsruhe


    2020-06-19 04:30:01.418 



                             T U R B O M O L E   

                          a o f o r c e - program

                        using direct algorithms for

                       SCF level calculations of
                         * harmonic force constants
                         * hyperpolarizabilities
                         * IR and RAMAN intensities
                         * VCD intensities

                       DFT level calculations of
                         * harmonic force constants
                         * IR intensities
                                                   
       Stephan Boecker, Peter Deglmann, Filipp Furche and Marco Haeser
                          Quantum Chemistry Group
                          Universitaet  Karlsruhe
                                   Germany

 
 
 
 
     References :
 
       RI-J implementation:
         Peter Deglmann, Klaus May, Filipp Furche, Reinhart Ahlrichs
                 Chem. Phys. Lett. 384:103 (2004)
 
       Efficiency, technical details:
         Peter Deglmann, Filipp Furche, Reinhart Ahlrichs
                 Chem. Phys. Lett. 362:511 (2002)
 
       Search of lowest eigenvalues by iterative diagonalization:
         Peter Deglmann, Filipp Furche
                 J. Chem. Phys. 117:9535 (2002)
 
       Vibrational circular dichroism implementation:
        Kevin Reiter, Michael Kuehn, Florian Weigend
                 J. Chem. Phys. 146:054102 (2017)  
 
 


              +--------------------------------------------------+
              | Atomic coordinate, charge and isotop information |
              +--------------------------------------------------+

                    atomic coordinates            atom    charge  isotop
         -8.41663366   -1.03259407    0.04286066    c      6.000     0
        -10.86015709    0.50276483    0.00126173    c      6.000     0
        -12.52373921   -0.72034933    0.03861064    h      1.000     0
        -10.97064237    1.66993905   -1.70139318    h      1.000     0
        -10.96746894    1.76671562    1.63373213    h      1.000     0
         -6.04927514    0.61993983   -0.00625907    c      6.000     0
         -8.37943226   -2.32208780   -1.57819319    h      1.000     0
         -8.37629451   -2.22762801    1.73439775    h      1.000     0
         -3.59326487   -0.89619264    0.03103746    c      6.000     0
         -6.08299093    1.91052945    1.61678539    h      1.000     0
         -6.08836770    1.81920347   -1.69742421    h      1.000     0
         -1.22813920    0.75805176   -0.01734758    c      6.000     0
         -3.55988392   -2.18558643   -1.59263120    h      1.000     0
         -3.55475873   -2.09567605    1.72174153    h      1.000     0
          1.22813996   -0.75802580    0.01749834    c      6.000     0
         -1.26064285    2.04642032    1.60710577    h      1.000     0
         -1.26741265    1.95868281   -1.70717707    h      1.000     0
          3.59326954    0.89620517   -0.03118714    c      6.000     0
          1.26053029   -2.04654978   -1.60683284    h      1.000     0
          1.26752689   -1.95849726    1.70744050    h      1.000     0
          6.04927081   -0.61994199    0.00593678    c      6.000     0
          3.56003815    2.18567439    1.59242229    h      1.000     0
          3.55461610    2.09560754   -1.72194701    h      1.000     0
          8.41664061    1.03258461   -0.04295203    c      6.000     0
          6.08298428   -1.91030400   -1.61728672    h      1.000     0
          6.08835850   -1.81944387    1.69693594    h      1.000     0
         10.86015139   -0.50277916   -0.00093149    c      6.000     0
          8.37921274    2.32217686    1.57801428    h      1.000     0
          8.37654235    2.22751199   -1.73457373    h      1.000     0
         10.97036686   -1.66992991    1.70175845    h      1.000     0
         12.52374185    0.72033103   -0.03803653    h      1.000     0
         10.96771370   -1.76675262   -1.63336667    h      1.000     0
 
       center of nuclear mass  :    0.00000018    0.00000097   -0.00000637
       center of nuclear charge:    0.00000014    0.00000076   -0.00000502

              +--------------------------------------------------+
              |               basis set information              |
              +--------------------------------------------------+

              we will work with the 1s 3p 5d 7f 9g ... basis set
              ...i.e. with spherical basis functions...

   type   atoms  prim   cont   basis
   ---------------------------------------------------------------------------
    c       10     46     31   def2-TZVP   [5s3p2d1f|11s6p2d1f]
    h       22      8      6   def2-TZVP   [3s1p|5s1p]
   ---------------------------------------------------------------------------
   total:   32    636    442
   ---------------------------------------------------------------------------

   total number of primitive shells          :   26
   total number of contracted shells         :  198
   total number of cartesian basis functions :  492
   total number of SCF-basis functions       :  442

 
             FOUND RI-J FLAG !
 

 NOTE: THIS IS A PRELIMINARY IMPLEMENTATION. THE RI APPROXIMATION IS
       PRESENTLY USED FOR CPKS CONTRIBUTIONS TO THE HESSIAN ONLY! SEE
       MANUAL FOR FURTHER DETAILS.

  
 AUXILIARY BASIS SET information:

              we will work with the 1s 3p 5d 7f 9g ... basis set
              ...i.e. with spherical basis functions...

   type   atoms  prim   cont   basis
   ---------------------------------------------------------------------------
    c       10     70     49   def2-TZVP   [6s4p3d1f1g|12s5p4d2f1g]
    h       22     16     11   def2-TZVP   [3s1p1d|5s2p1d]
   ---------------------------------------------------------------------------
   total:   32   1052    732
   ---------------------------------------------------------------------------

   total number of primitive shells          :   32
   total number of contracted shells         :  260
   total number of cartesian basis functions :  874
   total number of SCF-basis functions       :  732


 symmetry group of the molecule :   c1 

 the group has the following generators :
   c1(z)

    1 symmetry operations found

 there are 1 real representations :   a   

 maximum number of shells which are related by symmetry :  1


 determining totally symmetric integral contributions 
    - equivalent to irreducible tensor elements - 
 which can be formed within each triple of representations :

             representation triple      contributions

              a     a     a               1

    mo occupation :
   irrep   mo's   occupied
    a      442       41
 
 number of basis functions   :                    442
 number of occupied orbitals :                     41
 
  MOs are in ASCII format !


 reading orbital data $scfmo  from file mos
 orbital characterization : scfconv=7
 time elapsed for calculating density matrices :   0.169 sec

 number of non-frozen orbitals          :   442
 number of non-frozen occupied orbitals :    41
 Blocking parameters 
 shells:
    index      start shell   last shell  start bf    last bf    #bf 
       1             1         198             1        492    492
  
           ----------------------
               RI - INFORMATION
           ----------------------

 biggest AO integral is expected to be     5.725698708

 Threshold for integral neglect (rithr2):   0.51E-11
 Threshold for integral neglect (rithr1):   0.51E-11

 Contributions to RI integral batches: 
  neglected integral batches:                  5609
  direct contribution:                            0
  memory contribution:                 14092
 Core memory available (ricore):             25000 MiB
 Core memory needed for (P|Q) and Cholesky:      5 MiB
 Core memory used for integrals:               570 MiB
 
 ****************************************
 Memory allocated for RIDFT: 574 MiB
 ****************************************
 
  
           ------------------
           density functional
           ------------------
 TPSS global hybrid functional
 exchange:    9/10 (LDA+TPSS) + 1/10 HF
 correlation: LDA (PW) + TPSS

 iterations will be done with small grid
  
 spherical integration : Lebedev's spherical grid
 spherical gridsize    :                     3
    i.e. gridpoints    :                   302
 value for diffuse not defined
 radial integration    : Chebyshev 2nd kind (scaling 3)
 radial gridsize       :                     3
 integration cells     :                    32
 partition function    : becke
 partition sharpness   :                     3
  
 
 Derivatives of quadrature weights will be included
 
          Overall gridpoints after grid construction =        137758
 Ordering of quadrature gridpoints disabled.
 
 
 
 
 OCCUPIED-OCCUPIED TENSOR SPACES :

          IRREP   tensor space dimension   number of roots

           a              1681                  90
 
 OCCUPIED-VIRTUAL TENSOR SPACES :

          IRREP   tensor space dimension   number of roots

           a             16441                  90
 
 
 
 
 CONSTRUCTING integral bounds

 setting up bound for integral derivative estimation

 increment for numerical differentiation : 0.00050000
 
 machine precision:   2.220446049250313E-016

 integral neglect threshold       :  0.10E-09
 integral storage threshold THIZE :  0.10E-04
 integral storage threshold THIME :         5

 
 
 
 PREPARING NUMERICAL INTEGRATION
 
 Remaining core memory for DFT =                 27467 MB
 
 Memory needed per atom    =                  2842 KiB
 
     i. e.                    32 atoms per loop

 Calculating ground state density on molecular grid

 Integral of ground state density: N =   82.00043969630036    


 
 
 CONSTRUCTING first deriv. of <mu|x,y,z|nu> -> Dip. deriv.
  dipole integral derivatives will be neglected if
  expon. factor <0.101626E-11
      ...terminated. cpu:       0.72       wall:       0.09
 
 
 
 
 CONSTRUCTING first deriv. of  <mu|nu>
                               <mu|h|nu>    -> RHS
              second deriv. of <mu|nu>      -> Hessian
                               <mu|h|nu>    -> Hessian
                               nucl. rep.   -> Hessian
     integrals are neglected if expon. factor <  1.016260162601626E-013
  _________________________________
 |                                 |
 |         DFTD3 V3.1 Rev 0        |
 | S.Grimme, University Bonn       |
 |         June 2014               |
 |   see standalone version        |
 |       dftd3 -h for options      |
 |_________________________________|
 
 Please cite DFT-D3 work done with this code as:
 S. Grimme, J. Antony, S. Ehrlich and H. Krieg,
 J. Chem. Phys, 132 (2010), 154104.
 If used with BJ-damping cite also
 S. Grimme, S. Ehrlich and L. Goerigk,
 J. Comput. Chem. 32 (2011), 1456-1465
 For DFT-D2 the reference is
 S. Grimme, J. Comput. Chem., 27 (2006), 1787-1799
 
      ...terminated. cpu:      16.06       wall:       4.96
 
 
 
 
 CONSTRUCTING second deriv. of 2e energy    -> Hessian
   treating Coulomb (and exchange) contribution
     integrals will be neglected if total contribution <  1.016260162601626E-009
      ...terminated. cpu:    1745.80       wall:     218.41
   treating exchange-correlation contribution
      ...terminated. cpu:     509.53       wall:      63.58
 
 
 
 
 CONSTRUCTING S(i,j)xi
      ...terminated. cpu:       0.15       wall:       0.05
 
 
 
 
 CONSTRUCTING <i|x,y,z|j>*S(i,j)xi          -> Dip. deriv.
      ...terminated. cpu:       0.74       wall:       0.19
 
 
 
 
 CONSTRUCTING epsilon(i)*S(i,j)xi*S(i,j)chi -> Hessian
      ...terminated. cpu:       0.06       wall:       0.01
 
 
 
 
 CONSTRUCTING G(a,i)[S(k,l)xi]              -> RHS
              G(i,j)[S(k,l)xi]*S(i,j)chi    -> Hessian
 
         Maximum core memory set to                  28000 MB
         This corresponds to                 15018 vectors in CAO basis
      ...terminated. cpu:    5270.81       wall:     658.79
 
 
 
 
 CONSTRUCTING G(mu,nu)[D(kap,lam)]xi
 
          Maximum core memory set to                  28000 MB
          Atoms treated simultaneously :                    32
      ...terminated. cpu:    2191.76       wall:     273.66
 
 
 
 
 CONSTRUCTING F(a,i)xi                      -> RHS
              F(i,j)xi*S(i,j)chi            -> Hessian
 
        Maximum core memory set to                 28000 MB
        This corresponds to                 26648 vectors in CAO basis
      ...terminated. cpu:      14.30       wall:       3.59
 
 
 
 
 CONSTRUCTING epsilon(i)*S(a,i)xi           -> RHS
      ...terminated. cpu:       2.33       wall:       0.56
 
 
 
 
 SOLVING CPHF equations
 
 Residuum convergence criterium   :  1.000000000000000E-005
 
 Maximum number of Davidson iterations set to                    25
  Switching to small grid
        preparing numerical integration ....
          Overall gridpoints after grid construction =         35596

 Calculating ground state density on molecular grid

 Integral of ground state density: N =   82.01506954918891    




                       Nonorthonormal Krylov Space Iteration


 total number of roots to be determined:  90


 maximum core memory set to 28000 MB,
 corresponding to    14964 vectors in CAO basis


 maximum number of simultaneously treated vectors (including degeneracy):       90


 Iteration IRREP Converged      Max. Euclidean
                 roots          residual norm

    1       a        0        4.763367788970897D-02
 
    2       a        0        3.995881565950905D-03
 
    3       a        0        2.800108570162995D-04
 
    4       a       72        1.358290028811126D-05
 
    5       a       90        9.955678677925089D-06
 

 converged!

  Switching to fine grid
        preparing numerical integration ....
          Overall gridpoints after grid construction =        137758

 Calculating ground state density on molecular grid

 Integral of ground state density: N =   82.00043969629974    



 Iteration IRREP Converged      Max. Euclidean
                 roots          residual norm

    6       a        0        4.692791719204440D-04
 

 NOTE: Residual norms are larger than 1.00D-05 due to mgrid option!

      ...terminated. cpu:   13796.22       wall:    1793.17
 
 
 
 
 CONSTRUCTING <a|x,y,z|i>*U(a,i)xi          -> Dip. deriv.
      ...terminated. cpu:       2.32       wall:       0.67
 
 
 
 
 CONSTRUCTING RHS(a,i)xi*U(a,i)chi          -> Hessian
      ...terminated. cpu:       0.44       wall:       0.06
 
 
 
 

            -----------------------
            permanent dipole moment
            -----------------------

                                   x                y                z
    electronic part       :   -0.0000113876    -0.0000622469     0.0004014987
     nuclear   part       :    0.0000117285     0.0000626342    -0.0004116289
     total                :    0.0000003409     0.0000003873    -0.0000101302

 with reference to the point :   0.0000000        0.0000000        0.0000000
 (given in atomic units)
    | dipole |       :    0.0000257821  debye

   ***  dipole moment & cartesian dipole gradients written onto
        $dipole, $dipgrad,  file=<dipgrad>  ***

             -----------------------------------
             rotational and vibrational analysis
             -----------------------------------


            ==============================================================
            ATOMIC WEIGHTS (average over the natural occurance of isotops)
            ==============================================================
            ('*' denotes special isotop !)
              1     c                12.01115
              2     c                12.01115
              3     h                 1.00797
              4     h                 1.00797
              5     h                 1.00797
              6     c                12.01115
              7     h                 1.00797
              8     h                 1.00797
              9     c                12.01115
             10     h                 1.00797
             11     h                 1.00797
             12     c                12.01115
             13     h                 1.00797
             14     h                 1.00797
             15     c                12.01115
             16     h                 1.00797
             17     h                 1.00797
             18     c                12.01115
             19     h                 1.00797
             20     h                 1.00797
             21     c                12.01115
             22     h                 1.00797
             23     h                 1.00797
             24     c                12.01115
             25     h                 1.00797
             26     h                 1.00797
             27     c                12.01115
             28     h                 1.00797
             29     h                 1.00797
             30     h                 1.00797
             31     h                 1.00797
             32     h                 1.00797

          -------------------------------------------------
          CARTESIAN FORCE CONSTANT MATRIX (hartree/bohr**2)
         (translational & rotational space projected out)
          -------------------------------------------------

   ATOM              1 c                           2 c 
                  dx        dy        dz        dx        dy        dz
   1 c     dx  0.4458727
           dy -0.0065419 0.5237430
           dz  0.0004005 0.0015301 0.5815625
   2 c     dx -0.1538426 0.0508790-0.0013939 0.4942968
           dy  0.0520290-0.1125823 0.0009336 0.0481016 0.5322351
           dz -0.0014047 0.0009221-0.0782711-0.0013845 0.0005314 0.5575811
   3 h     dx -0.0215444-0.0185340 0.0005651-0.2105148-0.1246027 0.0038108
           dy  0.0167033 0.0124197-0.0004157-0.1256423-0.1417483 0.0029088
           dz -0.0004652-0.0003869-0.0014795 0.0038624 0.0029343-0.0476337
   4 h     dx -0.0023066 0.0164688-0.0251736-0.0472261 0.0047457-0.0081199
           dy  0.0011635-0.0114989 0.0158958 0.0051284-0.1264686 0.1175568
           dz -0.0000263-0.0001741-0.0000350-0.0087341 0.1178191-0.2234694
   5 h     dx -0.0022424 0.0179499 0.0242257-0.0471875 0.0049594 0.0074796
           dy  0.0011154-0.0123928-0.0151781 0.0054019-0.1403896-0.1222629
           dz -0.0000282 0.0008772 0.0007915 0.0080728-0.1225509-0.2094548
   6 c     dx -0.1400645-0.0511089 0.0014767-0.0308380-0.0154263 0.0004876
           dy -0.0524544-0.1188229 0.0011816 0.0142271 0.0132111-0.0004243
           dz  0.0014791 0.0011507-0.0783591-0.0003670-0.0003846-0.0005112
   7 h     dx -0.0464505 0.0022159 0.0029077-0.0023597 0.0189182 0.0240004
           dy  0.0024475-0.1398170-0.1178489 0.0012745-0.0116787-0.0144242
           dz  0.0031447-0.1187170-0.2045955-0.0001204 0.0011507 0.0007996
   8 h     dx -0.0461685 0.0023470-0.0034400-0.0024225 0.0175134-0.0250541
           dy  0.0025797-0.1264201 0.1134929 0.0013125-0.0108964 0.0150994
           dz -0.0036744 0.1144092-0.2179862 0.0000435-0.0005163 0.0000549
   9 c     dx -0.0296995 0.0133758-0.0003453-0.0028640-0.0034352 0.0000976
           dy -0.0153750 0.0140827-0.0004457-0.0039975-0.0041138 0.0001153
           dz  0.0004706-0.0004909-0.0011484 0.0001101 0.0001035-0.0006210
  10 h     dx -0.0019627-0.0176775-0.0228728 0.0020408-0.0005768-0.0010172
           dy -0.0010547-0.0137498-0.0167846 0.0010995 0.0005470 0.0003146
           dz  0.0002454 0.0004397-0.0000172 0.0001442 0.0001155 0.0001206
  11 h     dx -0.0019202-0.0163758 0.0238313 0.0020273-0.0005312 0.0010512
           dy -0.0010254-0.0128100 0.0175158 0.0010982 0.0005299-0.0003232
           dz -0.0001620 0.0003380-0.0010460-0.0002103-0.0001391 0.0001522
  12 c     dx -0.0027887 0.0036858-0.0000792-0.0005991-0.0013331 0.0000465
           dy  0.0035739-0.0042124 0.0001312 0.0014539 0.0015144-0.0000354
           dz -0.0000957 0.0001067-0.0007566-0.0000332-0.0000234 0.0006775
  13 h     dx  0.0020684 0.0008613 0.0011389-0.0000429 0.0000690-0.0001647
           dy -0.0010588 0.0002854 0.0002038 0.0000265 0.0001298 0.0002663
           dz -0.0002907-0.0000560 0.0000035 0.0001734 0.0003275 0.0003282
  14 h     dx  0.0020368 0.0008185-0.0011790-0.0000445 0.0000678 0.0001661
           dy -0.0010468 0.0002811-0.0001716 0.0000160 0.0000942-0.0002683
           dz  0.0003318 0.0000354 0.0000223-0.0001781-0.0003122 0.0003552
  15 c     dx -0.0004379 0.0013270-0.0000612-0.0003495-0.0004130 0.0000066
           dy -0.0013978 0.0016793-0.0000642-0.0004891-0.0006420 0.0000266
           dz  0.0000366-0.0000507 0.0006811 0.0000092 0.0000212-0.0000282
  16 h     dx -0.0000698-0.0001321 0.0001176 0.0000297 0.0000729 0.0000618
           dy -0.0000451 0.0001036 0.0002501-0.0000189 0.0000203 0.0000648
           dz -0.0001853 0.0003266 0.0003315-0.0000597-0.0000732-0.0000438
  17 h     dx -0.0000709-0.0001312-0.0001352 0.0000302 0.0000788-0.0000700
           dy -0.0000368 0.0000834-0.0002769-0.0000140 0.0000234-0.0000539
           dz  0.0001923-0.0003024 0.0003523 0.0000622 0.0000683-0.0000396
  18 c     dx -0.0003671 0.0004696 0.0000133-0.0001174-0.0001427 0.0000102
           dy  0.0004309-0.0006548 0.0000553 0.0001838 0.0002768-0.0000153
           dz -0.0000022 0.0000444 0.0000046 0.0000010-0.0000111 0.0000165
  19 h     dx  0.0000284-0.0000728-0.0000708 0.0000218 0.0000243 0.0000152
           dy  0.0000185 0.0000162 0.0000679 0.0000020 0.0000108-0.0000179
           dz  0.0000560-0.0000819-0.0000488 0.0000227 0.0000317 0.0000141
  20 h     dx  0.0000284-0.0000748 0.0001023 0.0000213 0.0000145-0.0000119
           dy  0.0000140 0.0000064-0.0000318-0.0000010 0.0000070 0.0000043
           dz -0.0000586 0.0000689-0.0000393-0.0000248-0.0000303 0.0000104
  21 c     dx -0.0000948 0.0001434-0.0000275-0.0000361-0.0000723-0.0000043
           dy -0.0001469 0.0003109-0.0000447-0.0000786-0.0001382 0.0000132
           dz  0.0000078-0.0000245 0.0000033-0.0000010 0.0000067-0.0000135
  22 h     dx  0.0000238-0.0000219-0.0000072 0.0000037-0.0000130-0.0000207
           dy  0.0000038 0.0000078-0.0000278-0.0000033-0.0000095 0.0000069
           dz -0.0000183 0.0000351 0.0000154-0.0000060-0.0000188-0.0000160
  23 h     dx  0.0000233-0.0000153-0.0000184 0.0000042-0.0000030 0.0000160
           dy  0.0000057 0.0000179-0.0000119-0.0000011-0.0000059 0.0000069
           dz  0.0000204-0.0000242 0.0000062 0.0000083 0.0000169-0.0000122
  24 c     dx -0.0000381 0.0000788 0.0000122-0.0000161 0.0000013 0.0000093
           dy  0.0000789-0.0001213 0.0000388 0.0000390 0.0000875-0.0000093
           dz  0.0000124 0.0000392 0.0000067 0.0000059-0.0000044 0.0000101
  25 h     dx  0.0000034 0.0000088 0.0000087 0.0000007 0.0000129 0.0000175
           dy  0.0000037-0.0000074 0.0000095 0.0000041 0.0000040-0.0000128
           dz  0.0000053-0.0000220-0.0000166 0.0000045 0.0000092 0.0000083
  26 h     dx  0.0000038 0.0000022 0.0000171 0.0000002 0.0000034-0.0000134
           dy  0.0000024-0.0000170 0.0000266 0.0000019 0.0000013-0.0000004
           dz -0.0000059 0.0000125-0.0000091-0.0000065-0.0000081 0.0000046
  27 c     dx -0.0000160 0.0000390 0.0000059-0.0000072-0.0000092-0.0000017
           dy  0.0000013 0.0000874-0.0000046-0.0000092-0.0000120 0.0000076
           dz  0.0000092-0.0000093 0.0000101-0.0000017 0.0000075-0.0000016
  28 h     dx  0.0000015-0.0000133-0.0000156-0.0000001-0.0000160-0.0000149
           dy -0.0000009 0.0000005-0.0000158-0.0000014-0.0000049 0.0000017
           dz -0.0000023 0.0000106 0.0000069 0.0000001-0.0000073-0.0000067
  29 h     dx  0.0000012-0.0000075 0.0000019 0.0000002-0.0000087 0.0000063
           dy  0.0000006 0.0000099-0.0000146 0.0000004-0.0000038 0.0000076
           dz  0.0000062-0.0000013 0.0000076 0.0000021 0.0000021-0.0000060
  30 h     dx  0.0000017-0.0000055 0.0000181 0.0000001-0.0000028-0.0000073
           dy  0.0000019-0.0000146 0.0000104 0.0000010 0.0000018 0.0000018
           dz  0.0000001 0.0000023 0.0000021-0.0000025-0.0000027-0.0000031
  31 h     dx -0.0000102 0.0000488-0.0000037-0.0000092-0.0000233 0.0000004
           dy  0.0000073-0.0000068-0.0000044 0.0000024-0.0000007 0.0000008
           dz  0.0000014 0.0000017 0.0000004 0.0000003-0.0000011-0.0000020
  32 h     dx  0.0000020-0.0000069-0.0000194 0.0000001-0.0000030 0.0000063
           dy  0.0000033-0.0000072-0.0000022 0.0000028 0.0000003-0.0000090
           dz  0.0000003-0.0000090 0.0000005 0.0000008 0.0000044 0.0000007

   ATOM              3 h                           4 h 
                  dx        dy        dz        dx        dy        dz
   3 h     dx  0.2317627
           dy  0.1358987 0.1526619
           dz -0.0041704-0.0032557 0.0468937
   4 h     dx  0.0014563-0.0138634 0.0227626 0.0509036
           dy  0.0012722-0.0113711 0.0165455-0.0091222 0.1369704
           dz  0.0004886-0.0006376-0.0000798 0.0096358-0.1313683 0.2419550
   5 h     dx  0.0014002-0.0151679-0.0219323-0.0010035-0.0008415-0.0006013
           dy  0.0011965-0.0122673-0.0158669-0.0007738 0.0122137 0.0150106
           dz -0.0005607 0.0013737 0.0008484 0.0006037-0.0169710-0.0214977
   6 c     dx -0.0037947 0.0024752-0.0000671 0.0021888-0.0011110 0.0002801
           dy  0.0060068-0.0023190 0.0000736 0.0007608 0.0004339-0.0001013
           dz -0.0001657 0.0000713 0.0002491-0.0013026-0.0003940 0.0001244
   7 h     dx  0.0010903-0.0009265 0.0001830 0.0012739-0.0006801-0.0005110
           dy -0.0000230 0.0008829 0.0003459-0.0007433 0.0001498 0.0001423
           dz  0.0006452-0.0000180 0.0000611 0.0004158-0.0001645 0.0009095
   8 h     dx  0.0010868-0.0009361-0.0001332-0.0050605 0.0037331 0.0001768
           dy -0.0000592 0.0008638-0.0003884 0.0033971-0.0012622-0.0002048
           dz -0.0006439-0.0000249 0.0000851-0.0000014-0.0005195 0.0017173
   9 c     dx -0.0008870 0.0009487-0.0000282-0.0000945-0.0000152-0.0001395
           dy -0.0019944 0.0009346-0.0000111 0.0001471 0.0000976-0.0002869
           dz  0.0000576-0.0000067 0.0006057 0.0001456-0.0002047 0.0003134
  10 h     dx  0.0003315 0.0001519 0.0003394-0.0000899 0.0000586-0.0000002
           dy  0.0001099 0.0000746 0.0003372-0.0000863 0.0000632 0.0000753
           dz -0.0001311 0.0002853 0.0002344 0.0000421-0.0000637-0.0000910
  11 h     dx  0.0003317 0.0001316-0.0003475-0.0002240 0.0005506-0.0006645
           dy  0.0001167 0.0000388-0.0003297-0.0005816 0.0006404-0.0002199
           dz  0.0001239-0.0002767 0.0002691 0.0006852-0.0001906 0.0002013
  12 c     dx -0.0004610 0.0002963-0.0000057 0.0000359 0.0000118-0.0000553
           dy  0.0007552-0.0003154 0.0000110-0.0000947-0.0000047 0.0000689
           dz -0.0000205 0.0000052-0.0000000 0.0001027-0.0000564-0.0000307
  13 h     dx -0.0000101-0.0000876-0.0000795 0.0000187 0.0000148 0.0000171
           dy  0.0000556 0.0000413 0.0000462 0.0000089-0.0000530-0.0000115
           dz  0.0001158-0.0000319-0.0000222-0.0000265 0.0000031-0.0000239
  14 h     dx -0.0000104-0.0000838 0.0000865 0.0001433-0.0002049 0.0001810
           dy  0.0000495 0.0000410-0.0000471-0.0002210 0.0000646-0.0000764
           dz -0.0001181 0.0000301-0.0000208 0.0001995-0.0000815-0.0000090
  15 c     dx -0.0001516 0.0000837-0.0000047 0.0000235-0.0000037-0.0000163
           dy -0.0003423 0.0001079-0.0000055 0.0000220 0.0000260-0.0000284
           dz  0.0000103-0.0000004-0.0000029-0.0000094 0.0000088-0.0000000
  16 h     dx  0.0000220-0.0000130 0.0000007-0.0000012-0.0000022-0.0000056
           dy -0.0000125-0.0000040-0.0000057-0.0000029 0.0000044 0.0000006
           dz -0.0000324 0.0000187 0.0000032-0.0000001-0.0000004-0.0000115
  17 h     dx  0.0000223-0.0000123-0.0000023-0.0000545 0.0000350-0.0000125
           dy -0.0000111-0.0000054 0.0000036-0.0000354 0.0000272-0.0000031
           dz  0.0000325-0.0000194 0.0000033 0.0000227-0.0000030 0.0000253
  18 c     dx -0.0000697 0.0000354 0.0000013 0.0000060 0.0000035-0.0000072
           dy  0.0001571-0.0000415 0.0000031-0.0000103-0.0000232 0.0000154
           dz -0.0000057-0.0000028-0.0000045 0.0000122 0.0000085-0.0000052
  19 h     dx  0.0000028-0.0000019 0.0000034-0.0000002 0.0000041 0.0000030
           dy  0.0000106 0.0000002-0.0000011 0.0000023-0.0000081-0.0000013
           dz  0.0000186-0.0000036-0.0000033-0.0000061-0.0000010 0.0000006
  20 h     dx  0.0000028-0.0000028-0.0000010 0.0000088-0.0000048 0.0000015
           dy  0.0000100 0.0000012 0.0000033-0.0000066-0.0000051-0.0000076
           dz -0.0000186 0.0000045-0.0000029 0.0000035-0.0000052 0.0000040
  21 c     dx -0.0000259 0.0000105-0.0000024 0.0000006 0.0000029-0.0000038
           dy -0.0000880 0.0000124-0.0000034 0.0000039 0.0000135-0.0000056
           dz  0.0000028 0.0000011-0.0000018-0.0000108 0.0000029-0.0000032
  22 h     dx  0.0000007-0.0000022-0.0000017-0.0000004-0.0000018-0.0000023
           dy -0.0000058 0.0000008-0.0000019-0.0000022 0.0000019 0.0000022
           dz -0.0000075 0.0000028 0.0000010 0.0000029-0.0000013-0.0000039
  23 h     dx  0.0000007-0.0000013-0.0000004-0.0000020 0.0000040 0.0000007
           dy -0.0000058 0.0000000-0.0000007 0.0000010 0.0000077-0.0000009
           dz  0.0000072-0.0000041 0.0000006 0.0000052-0.0000025 0.0000071
  24 c     dx -0.0000103 0.0000073 0.0000013 0.0000017 0.0000019 0.0000001
           dy  0.0000488-0.0000067 0.0000017-0.0000055-0.0000146 0.0000024
           dz -0.0000037-0.0000044 0.0000004 0.0000181 0.0000104 0.0000021
  25 h     dx -0.0000013 0.0000001 0.0000010 0.0000002 0.0000026 0.0000021
           dy  0.0000050-0.0000001 0.0000007 0.0000019-0.0000039-0.0000013
           dz  0.0000061 0.0000007-0.0000011-0.0000037-0.0000001 0.0000010
  26 h     dx -0.0000012-0.0000007 0.0000011 0.0000012-0.0000036-0.0000016
           dy  0.0000050 0.0000005 0.0000014-0.0000041-0.0000034-0.0000047
           dz -0.0000060 0.0000001-0.0000006-0.0000004-0.0000022 0.0000026
  27 c     dx -0.0000092 0.0000024 0.0000003 0.0000001 0.0000010-0.0000025
           dy -0.0000233-0.0000007-0.0000011-0.0000028 0.0000018-0.0000027
           dz  0.0000004 0.0000008-0.0000020-0.0000073 0.0000018-0.0000031
  28 h     dx -0.0000003-0.0000014-0.0000016-0.0000000-0.0000009-0.0000012
           dy -0.0000023 0.0000003-0.0000013-0.0000024 0.0000002 0.0000005
           dz -0.0000022 0.0000000 0.0000004 0.0000031 0.0000001-0.0000015
  29 h     dx -0.0000004-0.0000008 0.0000003-0.0000005 0.0000005 0.0000000
           dy -0.0000026-0.0000005-0.0000008 0.0000016 0.0000049 0.0000008
           dz  0.0000017-0.0000019 0.0000005 0.0000042-0.0000015 0.0000026
  30 h     dx  0.0000015-0.0000005 0.0000012 0.0000001-0.0000036-0.0000014
           dy  0.0000050 0.0000004 0.0000006-0.0000036-0.0000028-0.0000017
           dz -0.0000031-0.0000002-0.0000004-0.0000014-0.0000017-0.0000001
  31 h     dx -0.0000214-0.0000000-0.0000002 0.0000015 0.0000050-0.0000031
           dy -0.0000000-0.0000016-0.0000004-0.0000005 0.0000004-0.0000002
           dz -0.0000002-0.0000004-0.0000002 0.0000012 0.0000006-0.0000004
  32 h     dx  0.0000015-0.0000006-0.0000013-0.0000001 0.0000018 0.0000027
           dy  0.0000048-0.0000006-0.0000005 0.0000016-0.0000020 0.0000002
           dz  0.0000030 0.0000010-0.0000004-0.0000029-0.0000012-0.0000007

   ATOM              5 h                           6 c 
                  dx        dy        dz        dx        dy        dz
   5 h     dx  0.0508258
           dy -0.0093830 0.1525175
           dz -0.0087202 0.1364748 0.2263343
   6 c     dx  0.0022163-0.0011161-0.0002300 0.4484712
           dy  0.0008029 0.0004627 0.0000800-0.0028615 0.5223542
           dz  0.0012447 0.0003864 0.0000951 0.0002762 0.0013428 0.5775372
   7 h     dx -0.0050619 0.0037166-0.0003768-0.0019872-0.0176896-0.0228983
           dy  0.0033942-0.0012013 0.0003625-0.0012606-0.0138162-0.0168992
           dz -0.0001799 0.0006783 0.0016698-0.0000013 0.0004121 0.0000078
   8 h     dx  0.0012736-0.0006461 0.0005514-0.0019571-0.0163550 0.0239127
           dy -0.0007870 0.0001667-0.0001118-0.0012337-0.0128578 0.0176784
           dz -0.0003817 0.0002120 0.0008988 0.0000860 0.0003644-0.0010118
   9 c     dx -0.0000951-0.0000145 0.0001418-0.1463774 0.0499461-0.0012282
           dy  0.0001400 0.0001180 0.0003053 0.0500518-0.1130423 0.0009135
           dz -0.0001505 0.0002117 0.0002853-0.0011972 0.0009260-0.0778735
  10 h     dx -0.0002185 0.0005793 0.0006414-0.0464853 0.0023903 0.0028385
           dy -0.0006081 0.0006609 0.0001971 0.0024579-0.1378830-0.1165488
           dz -0.0006582 0.0001636 0.0001737 0.0029287-0.1170967-0.2029974
  11 h     dx -0.0000903 0.0000589-0.0000016-0.0461386 0.0027234-0.0035463
           dy -0.0000902 0.0000606-0.0000780 0.0027662-0.1251265 0.1124294
           dz -0.0000337 0.0000572-0.0000913-0.0035947 0.1130053-0.2157357
  12 c     dx  0.0000367 0.0000205 0.0000515-0.0301288-0.0157970 0.0004903
           dy -0.0001003 0.0000024-0.0000778 0.0132958 0.0142369-0.0004786
           dz -0.0000976 0.0000615-0.0000328-0.0003089-0.0004244-0.0011245
  13 h     dx  0.0001430-0.0002123-0.0001704-0.0028452 0.0182471 0.0238321
           dy -0.0002321 0.0000797 0.0000667 0.0016382-0.0125017-0.0153425
           dz -0.0001875 0.0000745-0.0000144-0.0000788 0.0003830-0.0000565
  14 h     dx  0.0000195 0.0000152-0.0000199-0.0029240 0.0168768-0.0247675
           dy  0.0000102-0.0000491 0.0000093 0.0017002-0.0116366 0.0159697
           dz  0.0000266-0.0000024-0.0000249-0.0000129 0.0002141-0.0008336
  15 c     dx  0.0000227-0.0000074 0.0000188-0.0024917-0.0036064 0.0001111
           dy  0.0000221 0.0000185 0.0000345-0.0035907-0.0046794 0.0001319
           dz  0.0000084-0.0000169 0.0000017 0.0001114 0.0001342-0.0007608
  16 h     dx -0.0000546 0.0000326 0.0000121 0.0020880-0.0007322-0.0011468
           dy -0.0000366 0.0000213 0.0000084 0.0011770 0.0003015 0.0001294
           dz -0.0000207 0.0000062 0.0000225 0.0002961-0.0000365 0.0000042
  17 h     dx -0.0000014-0.0000034 0.0000069 0.0020792-0.0006819 0.0011914
           dy -0.0000032 0.0000013 0.0000029 0.0011575 0.0002938-0.0001247
           dz  0.0000003-0.0000003-0.0000109-0.0003741 0.0000114 0.0000160
  18 c     dx  0.0000064 0.0000079 0.0000049-0.0004626-0.0014632 0.0000408
           dy -0.0000110-0.0000161-0.0000222 0.0013365 0.0017142-0.0000474
           dz -0.0000127-0.0000007-0.0000065-0.0000498-0.0000552 0.0006846
  19 h     dx  0.0000090-0.0000017-0.0000026-0.0000807 0.0001219-0.0001323
           dy -0.0000068 0.0000020 0.0000028 0.0000352 0.0001163 0.0002474
           dz -0.0000031 0.0000025 0.0000056 0.0001784 0.0003422 0.0003307
  20 h     dx -0.0000002 0.0000056-0.0000048-0.0000831 0.0001209 0.0001237
           dy  0.0000026-0.0000048-0.0000025 0.0000308 0.0000914-0.0002532
           dz  0.0000060 0.0000012-0.0000003-0.0001778-0.0003191 0.0003559
  21 c     dx  0.0000003-0.0000005 0.0000052-0.0003302-0.0004487 0.0000137
           dy  0.0000039 0.0000051 0.0000125-0.0004487-0.0007566 0.0000355
           dz  0.0000101-0.0000109-0.0000000 0.0000134 0.0000357-0.0000203
  22 h     dx -0.0000023 0.0000011 0.0000003 0.0000250 0.0000755 0.0000645
           dy  0.0000007 0.0000016 0.0000063-0.0000184 0.0000149 0.0000673
           dz -0.0000054 0.0000056 0.0000046-0.0000592-0.0000913-0.0000497
  23 h     dx -0.0000005-0.0000031 0.0000036 0.0000247 0.0000767-0.0000659
           dy -0.0000024-0.0000014 0.0000019-0.0000188 0.0000099-0.0000507
           dz -0.0000029 0.0000013-0.0000032 0.0000542 0.0000765-0.0000451
  24 c     dx  0.0000020 0.0000033 0.0000003-0.0000948-0.0001469 0.0000079
           dy -0.0000069-0.0000072-0.0000090 0.0001434 0.0003109-0.0000244
           dz -0.0000194-0.0000022 0.0000005-0.0000275-0.0000448 0.0000034
  25 h     dx  0.0000014-0.0000006 0.0000005 0.0000226 0.0000163 0.0000093
           dy -0.0000041 0.0000030-0.0000001-0.0000041 0.0000099-0.0000224
           dz  0.0000007-0.0000004 0.0000042 0.0000216 0.0000391 0.0000122
  26 h     dx  0.0000003 0.0000039-0.0000036 0.0000226 0.0000112-0.0000130
           dy  0.0000021-0.0000009-0.0000025-0.0000017 0.0000150 0.0000034
           dz  0.0000036-0.0000002 0.0000005-0.0000188-0.0000308 0.0000086
  27 c     dx  0.0000001 0.0000028 0.0000008-0.0000361-0.0000786-0.0000011
           dy -0.0000029 0.0000003 0.0000044-0.0000723-0.0001382 0.0000067
           dz  0.0000063-0.0000090 0.0000007-0.0000047 0.0000134-0.0000135
  28 h     dx -0.0000008-0.0000007-0.0000003 0.0000033-0.0000062-0.0000102
           dy  0.0000013-0.0000000 0.0000031-0.0000013-0.0000106 0.0000013
           dz -0.0000045 0.0000029 0.0000017-0.0000091-0.0000264-0.0000154
  29 h     dx -0.0000001-0.0000010 0.0000010 0.0000033-0.0000022 0.0000070
           dy -0.0000028-0.0000020 0.0000025-0.0000045-0.0000166 0.0000124
           dz -0.0000032 0.0000011-0.0000020 0.0000022 0.0000118-0.0000160
  30 h     dx -0.0000001 0.0000016-0.0000029 0.0000006 0.0000039-0.0000108
           dy  0.0000018-0.0000020-0.0000012 0.0000029 0.0000135 0.0000029
           dz  0.0000027 0.0000002-0.0000007-0.0000038-0.0000056-0.0000032
  31 h     dx  0.0000015 0.0000048 0.0000030-0.0000259-0.0000880 0.0000028
           dy -0.0000006-0.0000006 0.0000010 0.0000105 0.0000124 0.0000011
           dz -0.0000013-0.0000005-0.0000004-0.0000024-0.0000034-0.0000018
  32 h     dx  0.0000000-0.0000037 0.0000016 0.0000003 0.0000038 0.0000101
           dy -0.0000037-0.0000002-0.0000003-0.0000005 0.0000051-0.0000109
           dz  0.0000016-0.0000002 0.0000012 0.0000052 0.0000125-0.0000001

   ATOM              7 h                           8 h 
                  dx        dy        dz        dx        dy        dz
   7 h     dx  0.0557536
           dy -0.0025045 0.1539297
           dz -0.0034700 0.1324275 0.2204342
   8 h     dx -0.0005052-0.0003738 0.0003530 0.0555300
           dy -0.0004203 0.0118329-0.0164563-0.0026179 0.1389785
           dz -0.0003625 0.0144880-0.0224794 0.0040217-0.1279022 0.2354176
   9 c     dx  0.0020937 0.0011971 0.0002887 0.0020816 0.0011678-0.0003627
           dy -0.0007191 0.0003029-0.0000231-0.0006771 0.0002834 0.0000007
           dz -0.0011153 0.0001259 0.0000122 0.0011632-0.0001217 0.0000092
  10 h     dx -0.0046487-0.0035892 0.0001624 0.0011213 0.0007972 0.0004409
           dy -0.0034774-0.0018791 0.0003418 0.0007593 0.0003132 0.0001705
           dz  0.0002097 0.0003485 0.0017470-0.0004925-0.0001696 0.0009733
  11 h     dx  0.0011176 0.0007575-0.0004898-0.0046473-0.0035976 0.0000485
           dy  0.0007998 0.0003136-0.0001510-0.0034802-0.0019184-0.0001385
           dz  0.0004495 0.0001955 0.0009645 0.0000011-0.0001365 0.0017706
  12 c     dx -0.0000675-0.0000498-0.0001898-0.0000701-0.0000398 0.0002033
           dy -0.0001231 0.0001145 0.0003311-0.0001303 0.0000896-0.0003046
           dz  0.0001255 0.0002651 0.0003292-0.0001215-0.0002666 0.0003625
  13 h     dx -0.0002929-0.0006098-0.0006709-0.0000806-0.0000709-0.0000082
           dy  0.0005387 0.0006917 0.0002187 0.0000640 0.0000638 0.0000792
           dz  0.0006397 0.0002626 0.0002712-0.0000134-0.0000776-0.0000716
  14 h     dx -0.0000803-0.0000742 0.0000168-0.0003036-0.0005753 0.0007010
           dy  0.0000673 0.0000625-0.0000769 0.0005082 0.0006652-0.0002387
           dz  0.0000077 0.0000773-0.0000728-0.0006575-0.0002731 0.0003024
  15 c     dx  0.0000249-0.0000204-0.0000611 0.0000242-0.0000212 0.0000538
           dy  0.0000829 0.0000138-0.0000891 0.0000792 0.0000072 0.0000728
           dz  0.0000768 0.0000645-0.0000460-0.0000789-0.0000485-0.0000472
  16 h     dx  0.0001022 0.0002277 0.0001877 0.0000177-0.0000071-0.0000178
           dy  0.0002247 0.0001258 0.0000905-0.0000039-0.0000510-0.0000137
           dz  0.0001856 0.0000904-0.0000094 0.0000154 0.0000086-0.0000264
  17 h     dx  0.0000185-0.0000035 0.0000145 0.0001005 0.0002133-0.0002043
           dy -0.0000049-0.0000494 0.0000089 0.0002130 0.0001060-0.0001049
           dz -0.0000167-0.0000109-0.0000285-0.0001985-0.0001035 0.0000004
  18 c     dx  0.0000237 0.0000017-0.0000176 0.0000239 0.0000067 0.0000250
           dy -0.0000152 0.0000099 0.0000358-0.0000128 0.0000178-0.0000245
           dz -0.0000051-0.0000217 0.0000125-0.0000027-0.0000037 0.0000137
  19 h     dx -0.0000532-0.0000382-0.0000173-0.0000009-0.0000003 0.0000037
           dy  0.0000334 0.0000215 0.0000111 0.0000005 0.0000028 0.0000027
           dz  0.0000167 0.0000122 0.0000238 0.0000036 0.0000021-0.0000138
  20 h     dx -0.0000012-0.0000033 0.0000003-0.0000528-0.0000353 0.0000236
           dy  0.0000011 0.0000014 0.0000033 0.0000334 0.0000288-0.0000043
           dz -0.0000030 0.0000001-0.0000119-0.0000173-0.0000059 0.0000268
  21 c     dx  0.0000033-0.0000013-0.0000091 0.0000033-0.0000046 0.0000022
           dy -0.0000062-0.0000107-0.0000263-0.0000022-0.0000166 0.0000119
           dz -0.0000102 0.0000014-0.0000154 0.0000071 0.0000124-0.0000160
  22 h     dx  0.0000084 0.0000030 0.0000049-0.0000008-0.0000017-0.0000020
           dy  0.0000036 0.0000052 0.0000021-0.0000009-0.0000057-0.0000040
           dz  0.0000037 0.0000027 0.0000080 0.0000010-0.0000017 0.0000021
  23 h     dx -0.0000008 0.0000010-0.0000017 0.0000078 0.0000008-0.0000088
           dy -0.0000019-0.0000043-0.0000027 0.0000027-0.0000037-0.0000089
           dz -0.0000022-0.0000015 0.0000001-0.0000051-0.0000086 0.0000066
  24 c     dx  0.0000015-0.0000009-0.0000023 0.0000012 0.0000006 0.0000061
           dy -0.0000133 0.0000005 0.0000106-0.0000076 0.0000098-0.0000013
           dz -0.0000157-0.0000158 0.0000069 0.0000018-0.0000147 0.0000077
  25 h     dx -0.0000027-0.0000009-0.0000028-0.0000005 0.0000001 0.0000003
           dy  0.0000006 0.0000011 0.0000074-0.0000009-0.0000002 0.0000038
           dz  0.0000015 0.0000072 0.0000041 0.0000010 0.0000007-0.0000057
  26 h     dx -0.0000005-0.0000025 0.0000036-0.0000022 0.0000011 0.0000066
           dy -0.0000005-0.0000014 0.0000022 0.0000016 0.0000086-0.0000010
           dz -0.0000007 0.0000018-0.0000042-0.0000013-0.0000020 0.0000063
  27 c     dx -0.0000001-0.0000014 0.0000001 0.0000002 0.0000004 0.0000021
           dy -0.0000160-0.0000048-0.0000073-0.0000087-0.0000038 0.0000021
           dz -0.0000149 0.0000017-0.0000067 0.0000064 0.0000076-0.0000060
  28 h     dx  0.0000017 0.0000003-0.0000001 0.0000001-0.0000016-0.0000018
           dy  0.0000003 0.0000040-0.0000005-0.0000004-0.0000012-0.0000027
           dz -0.0000001-0.0000005 0.0000056 0.0000001-0.0000026 0.0000021
  29 h     dx  0.0000001-0.0000005 0.0000001 0.0000012-0.0000001-0.0000015
           dy -0.0000016-0.0000012-0.0000026-0.0000002-0.0000034-0.0000048
           dz -0.0000018-0.0000027 0.0000022-0.0000015-0.0000048 0.0000058
  30 h     dx -0.0000000-0.0000024 0.0000031-0.0000005 0.0000016 0.0000042
           dy -0.0000009 0.0000002 0.0000001 0.0000005 0.0000050-0.0000015
           dz -0.0000012 0.0000005-0.0000015 0.0000000 0.0000008 0.0000026
  31 h     dx -0.0000003-0.0000023-0.0000022-0.0000004-0.0000026 0.0000017
           dy -0.0000014 0.0000003 0.0000000-0.0000008-0.0000005-0.0000019
           dz -0.0000016-0.0000013 0.0000004 0.0000002-0.0000008 0.0000005
  32 h     dx -0.0000008 0.0000013-0.0000045-0.0000001-0.0000028-0.0000032
           dy -0.0000007-0.0000000 0.0000029-0.0000010-0.0000020 0.0000011
           dz -0.0000003 0.0000031 0.0000017 0.0000010 0.0000025-0.0000020

   ATOM              9 c                          10 h 
                  dx        dy        dz        dx        dy        dz
   9 c     dx  0.4480604
           dy -0.0022562 0.5218856
           dz  0.0002577 0.0012931 0.5778024
  10 h     dx -0.0028455 0.0182229 0.0237959 0.0552402
           dy  0.0016231-0.0124760-0.0153005-0.0025342 0.1527457
           dz -0.0000987 0.0003828-0.0000442-0.0032887 0.1313660 0.2191970
  11 h     dx -0.0029403 0.0168500-0.0247503-0.0004913-0.0002995 0.0003859
           dy  0.0017002-0.0116126 0.0159286-0.0003766 0.0116472-0.0164332
           dz  0.0000141 0.0002137-0.0008249-0.0004431 0.0145354-0.0224372
  12 c     dx -0.1402593-0.0517870 0.0014514 0.0021023-0.0010725-0.0002910
           dy -0.0517923-0.1188680 0.0011866 0.0008498 0.0002738-0.0000531
           dz  0.0014448 0.0011766-0.0777782 0.0011170 0.0001976 0.0000059
  13 h     dx -0.0464559 0.0023238 0.0028728-0.0049913 0.0032866-0.0001972
           dy  0.0023836-0.1379450-0.1165856 0.0032949-0.0015052 0.0002724
           dz  0.0028932-0.1171259-0.2033766-0.0002017 0.0002722 0.0017087
  14 h     dx -0.0461041 0.0026402-0.0035401 0.0012088-0.0006830 0.0004969
           dy  0.0027001-0.1253593 0.1125418-0.0007337 0.0002186-0.0001255
           dz -0.0035362 0.1131081-0.2159239-0.0004681 0.0001553 0.0009587
  15 c     dx -0.0300767 0.0132629-0.0003081-0.0000801 0.0000343 0.0001777
           dy -0.0157857 0.0141283-0.0004214 0.0001125 0.0001171 0.0003399
           dz  0.0004826-0.0004845-0.0011337-0.0001353 0.0002457 0.0003267
  16 h     dx -0.0019124-0.0175489-0.0228479-0.0003010 0.0005337 0.0006364
           dy -0.0011152-0.0135753-0.0166883-0.0006026 0.0006774 0.0002548
           dz  0.0001064 0.0004687 0.0000514-0.0006650 0.0002163 0.0002669
  17 h     dx -0.0018449-0.0162973 0.0237687-0.0000805 0.0000604-0.0000090
           dy -0.0010629-0.0126826 0.0173943-0.0000741 0.0000643-0.0000791
           dz -0.0000172 0.0002895-0.0009501-0.0000114 0.0000777-0.0000704
  18 c     dx -0.0029112 0.0036937-0.0000828 0.0000273 0.0000245 0.0000593
           dy  0.0036936-0.0042040 0.0001156-0.0000773 0.0000114-0.0000847
           dz -0.0000839 0.0001158-0.0007338-0.0000787 0.0000637-0.0000485
  19 h     dx  0.0021028 0.0008525 0.0011307 0.0001276-0.0002240-0.0001899
           dy -0.0010721 0.0002813 0.0002009-0.0002249 0.0000981 0.0000791
           dz -0.0002915-0.0000497-0.0000001-0.0001908 0.0000794-0.0000067
  20 h     dx  0.0020682 0.0008201-0.0011784 0.0000178 0.0000117-0.0000210
           dy -0.0010633 0.0002768-0.0001761 0.0000103-0.0000489 0.0000080
           dz  0.0003258 0.0000311 0.0000168 0.0000178-0.0000107-0.0000265
  21 c     dx -0.0004626 0.0013365-0.0000497 0.0000226-0.0000042 0.0000217
           dy -0.0014632 0.0017142-0.0000549 0.0000164 0.0000100 0.0000390
           dz  0.0000412-0.0000477 0.0006845 0.0000092-0.0000224 0.0000124
  22 h     dx -0.0000669-0.0001282 0.0001227-0.0000535 0.0000343 0.0000162
           dy -0.0000468 0.0001055 0.0002498-0.0000380 0.0000204 0.0000131
           dz -0.0001879 0.0003287 0.0003322-0.0000184 0.0000118 0.0000233
  23 h     dx -0.0000695-0.0001310-0.0001339-0.0000009-0.0000020 0.0000064
           dy -0.0000370 0.0000844-0.0002672-0.0000015 0.0000024 0.0000018
           dz  0.0002002-0.0003033 0.0003549 0.0000028 0.0000016-0.0000126
  24 c     dx -0.0003671 0.0004309-0.0000023 0.0000034 0.0000037 0.0000053
           dy  0.0004696-0.0006548 0.0000442 0.0000089-0.0000074-0.0000220
           dz  0.0000127 0.0000550 0.0000046 0.0000088 0.0000094-0.0000169
  25 h     dx  0.0000273-0.0000772-0.0000788 0.0000089-0.0000040-0.0000039
           dy  0.0000245 0.0000114 0.0000638-0.0000040 0.0000052 0.0000023
           dz  0.0000594-0.0000848-0.0000483-0.0000039 0.0000023 0.0000081
  26 h     dx  0.0000271-0.0000749 0.0001009-0.0000011 0.0000045-0.0000050
           dy  0.0000169 0.0000035-0.0000366 0.0000028-0.0000050-0.0000013
           dz -0.0000639 0.0000729-0.0000423 0.0000028-0.0000022 0.0000011
  27 c     dx -0.0001173 0.0001838 0.0000011 0.0000007 0.0000041 0.0000045
           dy -0.0001427 0.0002768-0.0000111 0.0000130 0.0000040 0.0000092
           dz  0.0000107-0.0000154 0.0000165 0.0000174-0.0000128 0.0000085
  28 h     dx  0.0000238-0.0000152-0.0000050-0.0000027 0.0000006 0.0000015
           dy  0.0000018 0.0000099-0.0000216-0.0000009 0.0000011 0.0000072
           dz -0.0000177 0.0000357 0.0000125-0.0000028 0.0000074 0.0000040
  29 h     dx  0.0000239-0.0000128-0.0000026-0.0000005-0.0000008 0.0000010
           dy  0.0000065 0.0000178-0.0000036 0.0000001-0.0000002 0.0000006
           dz  0.0000249-0.0000246 0.0000137 0.0000003 0.0000038-0.0000057
  30 h     dx  0.0000060-0.0000103 0.0000122 0.0000002 0.0000019-0.0000037
           dy  0.0000036-0.0000232 0.0000086 0.0000025-0.0000039-0.0000001
           dz -0.0000071 0.0000154-0.0000052 0.0000021-0.0000013 0.0000010
  31 h     dx -0.0000697 0.0001571-0.0000057-0.0000013 0.0000050 0.0000061
           dy  0.0000354-0.0000415-0.0000029 0.0000001-0.0000001 0.0000007
           dz  0.0000013 0.0000031-0.0000045 0.0000010 0.0000007-0.0000012
  32 h     dx  0.0000064-0.0000110-0.0000127 0.0000014-0.0000041 0.0000007
           dy  0.0000078-0.0000162-0.0000006-0.0000006 0.0000030-0.0000005
           dz  0.0000050-0.0000222-0.0000065 0.0000005-0.0000000 0.0000043

   ATOM             11 h                          12 c 
                  dx        dy        dz        dx        dy        dz
  11 h     dx  0.0550140
           dy -0.0028715 0.1384195
           dz  0.0039878-0.1271057 0.2335333
  12 c     dx  0.0020667-0.0010643 0.0003289 0.4479458
           dy  0.0008288 0.0002685 0.0000386-0.0022236 0.5219351
           dz -0.0011791-0.0001849 0.0000158 0.0003201 0.0012710 0.5778852
  13 h     dx  0.0012103-0.0007316-0.0004648-0.0018993-0.0175582-0.0228421
           dy -0.0006846 0.0002195 0.0001573-0.0011043-0.0135833-0.0166905
           dz  0.0004975-0.0001234 0.0009610 0.0001039 0.0004605 0.0000410
  14 h     dx -0.0049915 0.0032933 0.0000403-0.0018392-0.0162890 0.0237900
           dy  0.0032980-0.0015408-0.0001134-0.0010622-0.0126846 0.0174117
           dz  0.0000418-0.0001133 0.0017238-0.0000231 0.0002890-0.0009520
  15 c     dx -0.0000823 0.0000299-0.0001774-0.1463148 0.0501154-0.0011395
           dy  0.0001163 0.0000940-0.0003186 0.0501154-0.1127738 0.0008735
           dz  0.0001215-0.0002549 0.0003536-0.0011386 0.0008739-0.0777893
  16 h     dx -0.0000788 0.0000626 0.0000077-0.0464412 0.0022266 0.0027580
           dy -0.0000748 0.0000639 0.0000786 0.0023122-0.1378059-0.1165767
           dz  0.0000220-0.0000778-0.0000688 0.0028099-0.1171193-0.2035517
  17 h     dx -0.0003135 0.0005041-0.0006544-0.0460864 0.0026666-0.0035834
           dy -0.0005745 0.0006552-0.0002675 0.0027457-0.1255240 0.1126243
           dz  0.0006936-0.0002343 0.0002992-0.0036035 0.1131917-0.2157878
  18 c     dx  0.0000271 0.0000168-0.0000640-0.0300764-0.0157857 0.0004837
           dy -0.0000749 0.0000035 0.0000729 0.0132631 0.0141283-0.0004853
           dz  0.0001010-0.0000367-0.0000421-0.0003072-0.0004208-0.0011338
  19 h     dx  0.0000173 0.0000107 0.0000178-0.0028521 0.0182208 0.0238338
           dy  0.0000118-0.0000493-0.0000105 0.0016352-0.0124879-0.0153462
           dz -0.0000208 0.0000077-0.0000265-0.0000937 0.0003553-0.0000727
  20 h     dx  0.0001287-0.0002158 0.0001996-0.0029598 0.0168919-0.0247513
           dy -0.0002167 0.0000788-0.0000901 0.0017209-0.0116480 0.0159514
           dz  0.0001993-0.0000903-0.0000022 0.0000090 0.0002036-0.0008024
  21 c     dx  0.0000226-0.0000016-0.0000187-0.0024918-0.0035906 0.0001119
           dy  0.0000112 0.0000150-0.0000309-0.0036064-0.0046794 0.0001349
           dz -0.0000130 0.0000036 0.0000084 0.0001110 0.0001325-0.0007608
  22 h     dx -0.0000010-0.0000005-0.0000045 0.0020824-0.0007215-0.0011426
           dy -0.0000039 0.0000025 0.0000015 0.0011759 0.0003090 0.0001314
           dz  0.0000006 0.0000020-0.0000126 0.0002936-0.0000310 0.0000053
  23 h     dx -0.0000531 0.0000361-0.0000160 0.0020719-0.0006751 0.0011885
           dy -0.0000348 0.0000289-0.0000062 0.0011480 0.0002933-0.0001247
           dz  0.0000238-0.0000044 0.0000275-0.0003690 0.0000077 0.0000124
  24 c     dx  0.0000038 0.0000024-0.0000059-0.0004379-0.0013978 0.0000368
           dy  0.0000022-0.0000170 0.0000126 0.0013270 0.0016793-0.0000507
           dz  0.0000171 0.0000264-0.0000089-0.0000606-0.0000639 0.0006810
  25 h     dx -0.0000011 0.0000028 0.0000028-0.0000802 0.0001124-0.0001354
           dy  0.0000045-0.0000050-0.0000022 0.0000344 0.0001172 0.0002455
           dz -0.0000050-0.0000013 0.0000010 0.0001777 0.0003398 0.0003265
  26 h     dx  0.0000084-0.0000066 0.0000023-0.0000822 0.0001163 0.0001214
           dy -0.0000066-0.0000048-0.0000082 0.0000298 0.0000940-0.0002551
           dz  0.0000023-0.0000081 0.0000059-0.0001774-0.0003187 0.0003537
  27 c     dx  0.0000002 0.0000019-0.0000065-0.0003495-0.0004891 0.0000093
           dy  0.0000033 0.0000013-0.0000081-0.0004130-0.0006420 0.0000213
           dz -0.0000134-0.0000003 0.0000044 0.0000065 0.0000266-0.0000282
  28 h     dx -0.0000005-0.0000005-0.0000007 0.0000249 0.0000829 0.0000768
           dy -0.0000025-0.0000014 0.0000018-0.0000204 0.0000138 0.0000644
           dz  0.0000036 0.0000022-0.0000041-0.0000611-0.0000890-0.0000460
  29 h     dx -0.0000022 0.0000016-0.0000013 0.0000242 0.0000791-0.0000790
           dy  0.0000011 0.0000086-0.0000020-0.0000211 0.0000072-0.0000486
           dz  0.0000066-0.0000011 0.0000063 0.0000539 0.0000728-0.0000472
  30 h     dx  0.0000012-0.0000041-0.0000004 0.0000235 0.0000220-0.0000094
           dy -0.0000036-0.0000034-0.0000022-0.0000037 0.0000260 0.0000087
           dz -0.0000016-0.0000047 0.0000025-0.0000163-0.0000284-0.0000000
  31 h     dx -0.0000012 0.0000050-0.0000060-0.0001516-0.0003423 0.0000103
           dy -0.0000007 0.0000005 0.0000001 0.0000837 0.0001079-0.0000004
           dz  0.0000011 0.0000014-0.0000006-0.0000047-0.0000056-0.0000029
  32 h     dx  0.0000003 0.0000021 0.0000036 0.0000227 0.0000221 0.0000083
           dy  0.0000039-0.0000010-0.0000001-0.0000073 0.0000185-0.0000170
           dz -0.0000036-0.0000025 0.0000004 0.0000187 0.0000345 0.0000017

   ATOM             13 h                          14 h 
                  dx        dy        dz        dx        dy        dz
  13 h     dx  0.0553796
           dy -0.0024959 0.1527009
           dz -0.0033101 0.1314338 0.2195250
  14 h     dx -0.0004898-0.0003179 0.0004171 0.0551145
           dy -0.0003898 0.0116904-0.0164184-0.0028161 0.1385676
           dz -0.0004627 0.0145495-0.0224112 0.0039975-0.1272387 0.2336553
  15 c     dx  0.0020824 0.0011762 0.0002940 0.0020718 0.0011478-0.0003686
           dy -0.0007219 0.0003089-0.0000312-0.0006747 0.0002933 0.0000076
           dz -0.0011429 0.0001315 0.0000051 0.0011881-0.0001246 0.0000126
  16 h     dx -0.0045960-0.0034694 0.0002085 0.0011298 0.0007866 0.0004523
           dy -0.0034718-0.0018948 0.0002954 0.0007473 0.0003120 0.0001779
           dz  0.0002106 0.0002994 0.0017081-0.0004969-0.0001584 0.0009614
  17 h     dx  0.0011269 0.0007456-0.0004970-0.0045956-0.0034795-0.0000066
           dy  0.0007857 0.0003101-0.0001594-0.0034772-0.0019289-0.0000996
           dz  0.0004531 0.0001784 0.0009581-0.0000055-0.0000978 0.0017245
  18 c     dx -0.0000669-0.0000469-0.0001878-0.0000695-0.0000370 0.0002003
           dy -0.0001283 0.0001055 0.0003287-0.0001309 0.0000844-0.0003033
           dz  0.0001228 0.0002499 0.0003323-0.0001338-0.0002672 0.0003548
  19 h     dx -0.0003027-0.0006040-0.0006649-0.0000801-0.0000724-0.0000128
           dy  0.0005344 0.0006785 0.0002167 0.0000608 0.0000645 0.0000790
           dz  0.0006401 0.0002562 0.0002666-0.0000107-0.0000787-0.0000691
  20 h     dx -0.0000788-0.0000748 0.0000223-0.0003133-0.0005728 0.0006937
           dy  0.0000649 0.0000641-0.0000782 0.0005065 0.0006554-0.0002343
           dz  0.0000080 0.0000790-0.0000702-0.0006551-0.0002648 0.0002975
  21 c     dx  0.0000250-0.0000183-0.0000593 0.0000246-0.0000189 0.0000542
           dy  0.0000755 0.0000148-0.0000912 0.0000766 0.0000099 0.0000765
           dz  0.0000645 0.0000672-0.0000497-0.0000659-0.0000507-0.0000451
  22 h     dx  0.0001021 0.0002240 0.0001868 0.0000175-0.0000061-0.0000163
           dy  0.0002240 0.0001246 0.0000883-0.0000034-0.0000508-0.0000123
           dz  0.0001867 0.0000883-0.0000078 0.0000133 0.0000087-0.0000265
  23 h     dx  0.0000174-0.0000034 0.0000133 0.0001006 0.0002103-0.0002017
           dy -0.0000061-0.0000508 0.0000086 0.0002103 0.0001037-0.0001034
           dz -0.0000163-0.0000122-0.0000265-0.0002018-0.0001034 0.0000002
  24 c     dx  0.0000238 0.0000039-0.0000183 0.0000233 0.0000057 0.0000204
           dy -0.0000219 0.0000078 0.0000350-0.0000153 0.0000179-0.0000243
           dz -0.0000072-0.0000277 0.0000154-0.0000183-0.0000118 0.0000062
  25 h     dx -0.0000535-0.0000380-0.0000184-0.0000009-0.0000015 0.0000027
           dy  0.0000343 0.0000204 0.0000119-0.0000020 0.0000024 0.0000016
           dz  0.0000162 0.0000130 0.0000234 0.0000064 0.0000019-0.0000126
  26 h     dx -0.0000010-0.0000038 0.0000006-0.0000531-0.0000348 0.0000238
           dy -0.0000005 0.0000024 0.0000021 0.0000361 0.0000289-0.0000044
           dz -0.0000045 0.0000015-0.0000126-0.0000160-0.0000062 0.0000275
  27 c     dx  0.0000037-0.0000033-0.0000060 0.0000042-0.0000011 0.0000083
           dy -0.0000130-0.0000095-0.0000188-0.0000030-0.0000059 0.0000169
           dz -0.0000207 0.0000069-0.0000160 0.0000160 0.0000069-0.0000121
  28 h     dx  0.0000084 0.0000036 0.0000037-0.0000008-0.0000019-0.0000022
           dy  0.0000030 0.0000052 0.0000027 0.0000010-0.0000042-0.0000015
           dz  0.0000049 0.0000021 0.0000080-0.0000017-0.0000027 0.0000001
  29 h     dx -0.0000008-0.0000009 0.0000010 0.0000078 0.0000027-0.0000051
           dy -0.0000017-0.0000057-0.0000017 0.0000008-0.0000037-0.0000086
           dz -0.0000020-0.0000040 0.0000021-0.0000088-0.0000089 0.0000066
  30 h     dx -0.0000004-0.0000022 0.0000029-0.0000020 0.0000010 0.0000052
           dy -0.0000018 0.0000019-0.0000013 0.0000040 0.0000077-0.0000025
           dz -0.0000023 0.0000021-0.0000039 0.0000007-0.0000009 0.0000071
  31 h     dx  0.0000007-0.0000058-0.0000075 0.0000007-0.0000058 0.0000073
           dy -0.0000022 0.0000008 0.0000028-0.0000013 0.0000000-0.0000041
           dz -0.0000017-0.0000019 0.0000010-0.0000004-0.0000007 0.0000006
  32 h     dx -0.0000023 0.0000007-0.0000054-0.0000005-0.0000024-0.0000029
           dy  0.0000011 0.0000016 0.0000056-0.0000031-0.0000014 0.0000012
           dz  0.0000003 0.0000063 0.0000046 0.0000036 0.0000019-0.0000032

   ATOM             15 c                          16 h 
                  dx        dy        dz        dx        dy        dz
  15 c     dx  0.4479465
           dy -0.0022236 0.5219353
           dz  0.0003336 0.0012802 0.5778839
  16 h     dx -0.0028527 0.0182197 0.0238350 0.0553855
           dy  0.0016358-0.0124875-0.0153466-0.0024128 0.1525517
           dz -0.0000940 0.0003559-0.0000722-0.0032102 0.1314058 0.2197131
  17 h     dx -0.0029592 0.0168931-0.0247502-0.0004869-0.0003094 0.0004033
           dy  0.0017203-0.0116484 0.0159510-0.0003982 0.0116888-0.0163975
           dz  0.0000087 0.0002041-0.0008030-0.0004747 0.0145734-0.0224209
  18 c     dx -0.1402593-0.0517916 0.0014506 0.0021027-0.0010715-0.0002914
           dy -0.0517863-0.1188670 0.0011779 0.0008521 0.0002811-0.0000498
           dz  0.0014579 0.0011879-0.0777781 0.0011301 0.0002011-0.0000003
  19 h     dx -0.0464401 0.0022192 0.0027474-0.0049843 0.0032929-0.0001926
           dy  0.0023051-0.1378286-0.1165830 0.0032926-0.0015039 0.0002706
           dz  0.0027996-0.1171246-0.2035314-0.0001924 0.0002703 0.0017089
  20 h     dx -0.0460875 0.0026735-0.0035947 0.0012120-0.0006894 0.0004945
           dy  0.0027522-0.1255025 0.1126153-0.0007371 0.0002175-0.0001228
           dz -0.0036145 0.1131835-0.2158066-0.0004651 0.0001546 0.0009605
  21 c     dx -0.0301292 0.0132959-0.0003074-0.0000808 0.0000352 0.0001784
           dy -0.0157969 0.0142369-0.0004234 0.0001218 0.0001164 0.0003421
           dz  0.0004924-0.0004795-0.0011245-0.0001323 0.0002472 0.0003307
  22 h     dx -0.0019015-0.0175608-0.0228413-0.0003025 0.0005342 0.0006401
           dy -0.0011061-0.0135846-0.0166891-0.0006040 0.0006783 0.0002562
           dz  0.0001041 0.0004632 0.0000443-0.0006647 0.0002165 0.0002665
  23 h     dx -0.0018371-0.0162867 0.0237910-0.0000800 0.0000607-0.0000108
           dy -0.0010605-0.0126832 0.0174128-0.0000723 0.0000645-0.0000787
           dz -0.0000229 0.0002914-0.0009555-0.0000129 0.0000789-0.0000689
  24 c     dx -0.0027887 0.0035739-0.0000964 0.0000283 0.0000185 0.0000560
           dy  0.0036858-0.0042125 0.0001063-0.0000727 0.0000162-0.0000818
           dz -0.0000781 0.0001307-0.0007567-0.0000709 0.0000679-0.0000487
  25 h     dx  0.0021022 0.0008497 0.0011166 0.0001276-0.0002249-0.0001907
           dy -0.0010720 0.0002736 0.0001979-0.0002240 0.0000981 0.0000794
           dz -0.0002911-0.0000533 0.0000057-0.0001899 0.0000791-0.0000067
  26 h     dx  0.0020667 0.0008289-0.0011795 0.0000173 0.0000118-0.0000208
           dy -0.0010649 0.0002687-0.0001844 0.0000107-0.0000493 0.0000076
           dz  0.0003289 0.0000384 0.0000159 0.0000179-0.0000106-0.0000265
  27 c     dx -0.0005991 0.0014539-0.0000333 0.0000218 0.0000020 0.0000227
           dy -0.0013331 0.0015144-0.0000234 0.0000243 0.0000108 0.0000317
           dz  0.0000464-0.0000351 0.0006775 0.0000152-0.0000180 0.0000141
  28 h     dx -0.0000673-0.0001232 0.0001255-0.0000532 0.0000334 0.0000166
           dy -0.0000498 0.0001145 0.0002652-0.0000382 0.0000215 0.0000122
           dz -0.0001897 0.0003312 0.0003292-0.0000173 0.0000111 0.0000238
  29 h     dx -0.0000702-0.0001302-0.0001215-0.0000009 0.0000006 0.0000036
           dy -0.0000398 0.0000896-0.0002664-0.0000003 0.0000028 0.0000021
           dz  0.0002034-0.0003045 0.0003624 0.0000037 0.0000027-0.0000137
  30 h     dx  0.0000359-0.0000947 0.0001027-0.0000002 0.0000023-0.0000061
           dy  0.0000118-0.0000048-0.0000563 0.0000041-0.0000081-0.0000011
           dz -0.0000554 0.0000688-0.0000307 0.0000030-0.0000013 0.0000006
  31 h     dx -0.0004610 0.0007552-0.0000205 0.0000028 0.0000107 0.0000186
           dy  0.0002963-0.0003154 0.0000052-0.0000019 0.0000002-0.0000036
           dz -0.0000057 0.0000112-0.0000000 0.0000034-0.0000011-0.0000033
  32 h     dx  0.0000367-0.0001003-0.0000976 0.0000090-0.0000068-0.0000031
           dy  0.0000205 0.0000025 0.0000615-0.0000017 0.0000020 0.0000025
           dz  0.0000515-0.0000779-0.0000328-0.0000026 0.0000028 0.0000056

   ATOM             17 h                          18 c 
                  dx        dy        dz        dx        dy        dz
  17 h     dx  0.0551423
           dy -0.0028756 0.1387537
           dz  0.0040498-0.1273153 0.2334906
  18 c     dx  0.0020683-0.0010639 0.0003260 0.4480609
           dy  0.0008203 0.0002770 0.0000310-0.0022575 0.5218866
           dz -0.0011789-0.0001759 0.0000171 0.0002755 0.0012986 0.5778029
  19 h     dx  0.0012117-0.0007369-0.0004651-0.0019140-0.0175514-0.0228465
           dy -0.0006892 0.0002173 0.0001546-0.0011164-0.0135765-0.0166864
           dz  0.0004946-0.0001229 0.0009601 0.0001068 0.0004715 0.0000548
  20 h     dx -0.0049842 0.0032972 0.0000462-0.0018434-0.0162950 0.0237702
           dy  0.0032975-0.0015386-0.0001205-0.0010617-0.0126814 0.0173961
           dz  0.0000463-0.0001208 0.0017232-0.0000168 0.0002921-0.0009538
  21 c     dx -0.0000831 0.0000307-0.0001777-0.1463780 0.0500530-0.0011967
           dy  0.0001211 0.0000913-0.0003192 0.0499473-0.1130434 0.0009293
           dz  0.0001236-0.0002534 0.0003559-0.0012291 0.0009155-0.0778739
  22 h     dx -0.0000788 0.0000649 0.0000079-0.0464559 0.0023152 0.0028593
           dy -0.0000749 0.0000641 0.0000790 0.0023753-0.1379584-0.1165903
           dz  0.0000223-0.0000783-0.0000704 0.0028800-0.1171300-0.2033660
  23 h     dx -0.0003135 0.0005066-0.0006551-0.0461042 0.0026483-0.0035540
           dy -0.0005728 0.0006555-0.0002649 0.0027078-0.1253466 0.1125357
           dz  0.0006939-0.0002345 0.0002976-0.0035498 0.1131026-0.2159347
  24 c     dx  0.0000284 0.0000140-0.0000586-0.0296994-0.0153748 0.0004700
           dy -0.0000749 0.0000065 0.0000689 0.0133759 0.0140827-0.0004903
           dz  0.0001023-0.0000317-0.0000394-0.0003458-0.0004458-0.0011485
  25 h     dx  0.0000178 0.0000104 0.0000178-0.0028445 0.0182204 0.0237979
           dy  0.0000117-0.0000489-0.0000108 0.0016228-0.0124753-0.0153026
           dz -0.0000210 0.0000079-0.0000266-0.0000988 0.0003811-0.0000466
  26 h     dx  0.0001286-0.0002167 0.0001993-0.0029411 0.0168525-0.0247483
           dy -0.0002159 0.0000788-0.0000903 0.0017005-0.0116136 0.0159268
           dz  0.0001996-0.0000901-0.0000021 0.0000141 0.0002123-0.0008224
  27 c     dx  0.0000213-0.0000010-0.0000248-0.0028641-0.0039976 0.0001094
           dy  0.0000146 0.0000070-0.0000303-0.0034352-0.0041138 0.0001031
           dz -0.0000119 0.0000042 0.0000104 0.0000983 0.0001147-0.0006210
  28 h     dx -0.0000012 0.0000011-0.0000030 0.0020938-0.0007197-0.0011160
           dy -0.0000033 0.0000014 0.0000001 0.0011979 0.0003031 0.0001259
           dz  0.0000003 0.0000033-0.0000119 0.0002891-0.0000230 0.0000125
  29 h     dx -0.0000528 0.0000334-0.0000174 0.0020814-0.0006766 0.0011624
           dy -0.0000353 0.0000288-0.0000059 0.0011670 0.0002832-0.0001218
           dz  0.0000236-0.0000043 0.0000268-0.0003622 0.0000007 0.0000090
  30 h     dx  0.0000088-0.0000066 0.0000035-0.0000945 0.0001471 0.0001457
           dy -0.0000047-0.0000051-0.0000052-0.0000152 0.0000977-0.0002048
           dz  0.0000015-0.0000076 0.0000040-0.0001394-0.0002870 0.0003135
  31 h     dx  0.0000029 0.0000100-0.0000186-0.0008870-0.0019944 0.0000572
           dy -0.0000029 0.0000012 0.0000045 0.0009487 0.0009346-0.0000066
           dz -0.0000010 0.0000033-0.0000029-0.0000284-0.0000116 0.0006057
  32 h     dx -0.0000002 0.0000026 0.0000060-0.0000951 0.0001400-0.0001504
           dy  0.0000056-0.0000048 0.0000012-0.0000145 0.0001179 0.0002117
           dz -0.0000048-0.0000025-0.0000003 0.0001419 0.0003053 0.0002852

   ATOM             19 h                          20 h 
                  dx        dy        dz        dx        dy        dz
  19 h     dx  0.0553859
           dy -0.0024040 0.1525758
           dz -0.0031997 0.1314127 0.2196902
  20 h     dx -0.0004869-0.0003084 0.0004020 0.0551421
           dy -0.0003992 0.0116886-0.0164014-0.0028838 0.1387311
           dz -0.0004759 0.0145695-0.0224207 0.0040609-0.1273055 0.2335120
  21 c     dx  0.0020880 0.0011771 0.0002957 0.0020793 0.0011575-0.0003745
           dy -0.0007319 0.0003015-0.0000363-0.0006822 0.0002937 0.0000116
           dz -0.0011467 0.0001291 0.0000044 0.0011916-0.0001251 0.0000158
  22 h     dx -0.0045960-0.0034718 0.0002114 0.0011269 0.0007858 0.0004530
           dy -0.0034694-0.0018946 0.0002998 0.0007456 0.0003102 0.0001783
           dz  0.0002093 0.0002960 0.0017080-0.0004971-0.0001594 0.0009581
  23 h     dx  0.0011298 0.0007472-0.0004970-0.0045957-0.0034772-0.0000047
           dy  0.0007867 0.0003120-0.0001585-0.0034794-0.0019290-0.0000973
           dz  0.0004522 0.0001778 0.0009613-0.0000058-0.0000990 0.0017245
  24 c     dx -0.0000699-0.0000452-0.0001854-0.0000709-0.0000368 0.0001922
           dy -0.0001322 0.0001036 0.0003266-0.0001312 0.0000834-0.0003024
           dz  0.0001175 0.0002502 0.0003315-0.0001354-0.0002768 0.0003523
  25 h     dx -0.0003009-0.0006026-0.0006648-0.0000805-0.0000740-0.0000116
           dy  0.0005335 0.0006773 0.0002161 0.0000603 0.0000643 0.0000777
           dz  0.0006365 0.0002548 0.0002669-0.0000091-0.0000791-0.0000701
  26 h     dx -0.0000788-0.0000749 0.0000219-0.0003136-0.0005744 0.0006938
           dy  0.0000627 0.0000639-0.0000778 0.0005043 0.0006553-0.0002345
           dz  0.0000075 0.0000786-0.0000690-0.0006543-0.0002675 0.0002992
  27 c     dx  0.0000297-0.0000189-0.0000597 0.0000302-0.0000140 0.0000623
           dy  0.0000729 0.0000203-0.0000732 0.0000788 0.0000234 0.0000683
           dz  0.0000619 0.0000647-0.0000438-0.0000700-0.0000539-0.0000397
  28 h     dx  0.0001022 0.0002247 0.0001856 0.0000184-0.0000049-0.0000166
           dy  0.0002277 0.0001258 0.0000903-0.0000035-0.0000494-0.0000109
           dz  0.0001877 0.0000905-0.0000094 0.0000145 0.0000089-0.0000286
  29 h     dx  0.0000177-0.0000040 0.0000154 0.0001006 0.0002130-0.0001985
           dy -0.0000071-0.0000510 0.0000086 0.0002133 0.0001060-0.0001035
           dz -0.0000178-0.0000137-0.0000264-0.0002043-0.0001048 0.0000004
  30 h     dx -0.0000012-0.0000029-0.0000001-0.0000545-0.0000354 0.0000227
           dy -0.0000022 0.0000044-0.0000004 0.0000350 0.0000271-0.0000030
           dz -0.0000055 0.0000006-0.0000115-0.0000125-0.0000032 0.0000253
  31 h     dx  0.0000220-0.0000125-0.0000324 0.0000222-0.0000111 0.0000325
           dy -0.0000130-0.0000040 0.0000187-0.0000123-0.0000054-0.0000194
           dz  0.0000007-0.0000057 0.0000032-0.0000023 0.0000036 0.0000034
  32 h     dx -0.0000546-0.0000366-0.0000206-0.0000014-0.0000032 0.0000003
           dy  0.0000326 0.0000213 0.0000062-0.0000034 0.0000013-0.0000003
           dz  0.0000121 0.0000084 0.0000225 0.0000069 0.0000029-0.0000109

   ATOM             21 c                          22 h 
                  dx        dy        dz        dx        dy        dz
  21 c     dx  0.4484730
           dy -0.0028631 0.5223534
           dz  0.0002806 0.0013325 0.5775374
  22 h     dx -0.0028430 0.0182461 0.0238315 0.0553797
           dy  0.0016364-0.0125014-0.0153433-0.0024841 0.1527153
           dz -0.0000779 0.0003809-0.0000588-0.0032969 0.1314384 0.2195134
  23 h     dx -0.0029261 0.0168777-0.0247681-0.0004899-0.0003167 0.0004152
           dy  0.0017018-0.0116371 0.0159692-0.0003911 0.0116903-0.0164197
           dz -0.0000122 0.0002122-0.0008311-0.0004643 0.0145482-0.0224111
  24 c     dx -0.1400646-0.0524540 0.0014748 0.0020686-0.0010595-0.0002912
           dy -0.0511084-0.1188227 0.0011462 0.0008619 0.0002855-0.0000559
           dz  0.0014700 0.0011777-0.0783589 0.0011396 0.0002039 0.0000037
  25 h     dx -0.0464864 0.0023912 0.0028392-0.0049914 0.0032948-0.0002010
           dy  0.0024589-0.1378513-0.1165416 0.0032870-0.0015055 0.0002716
           dz  0.0029296-0.1170915-0.2030281-0.0001968 0.0002725 0.0017087
  26 h     dx -0.0461379 0.0027225-0.0035445 0.0012099-0.0006845 0.0004975
           dy  0.0027653-0.1251564 0.1124396-0.0007313 0.0002193-0.0001235
           dz -0.0035928 0.1130137-0.2157052-0.0004649 0.0001574 0.0009606
  27 c     dx -0.0308381 0.0142273-0.0003709-0.0000429 0.0000264 0.0001734
           dy -0.0154262 0.0132110-0.0003865 0.0000691 0.0001298 0.0003275
           dz  0.0004840-0.0004222-0.0005112-0.0001647 0.0002664 0.0003282
  28 h     dx -0.0019851-0.0176897-0.0228976-0.0002931 0.0005388 0.0006398
           dy -0.0012587-0.0138160-0.0168992-0.0006100 0.0006919 0.0002628
           dz -0.0000019 0.0004098 0.0000051-0.0006711 0.0002189 0.0002713
  29 h     dx -0.0019594-0.0163549 0.0239136-0.0000806 0.0000640-0.0000134
           dy -0.0012358-0.0128578 0.0176782-0.0000709 0.0000638-0.0000776
           dz  0.0000855 0.0003623-0.0010090-0.0000083 0.0000792-0.0000716
  30 h     dx  0.0021891 0.0007613-0.0013028 0.0000187 0.0000089-0.0000265
           dy -0.0011112 0.0004339-0.0003943 0.0000148-0.0000530 0.0000031
           dz  0.0002805-0.0001011 0.0001242 0.0000172-0.0000115-0.0000239
  31 h     dx -0.0037947 0.0060068-0.0001660-0.0000100 0.0000556 0.0001158
           dy  0.0024753-0.0023190 0.0000720-0.0000876 0.0000413-0.0000319
           dz -0.0000676 0.0000750 0.0002491-0.0000794 0.0000462-0.0000222
  32 h     dx  0.0022159 0.0008025 0.0012446 0.0001430-0.0002321-0.0001876
           dy -0.0011159 0.0004627 0.0003861-0.0002123 0.0000797 0.0000745
           dz -0.0002295 0.0000802 0.0000953-0.0001703 0.0000667-0.0000145

   ATOM             23 h                          24 c 
                  dx        dy        dz        dx        dy        dz
  23 h     dx  0.0551144
           dy -0.0028271 0.1385541
           dz  0.0040111-0.1272327 0.2336670
  24 c     dx  0.0020367-0.0010462 0.0003313 0.4458728
           dy  0.0008179 0.0002810 0.0000354-0.0065428 0.5237443
           dz -0.0011782-0.0001715 0.0000222 0.0003793 0.0015385 0.5815626
  25 h     dx  0.0012091-0.0007337-0.0004681-0.0019613-0.0176757-0.0228749
           dy -0.0006833 0.0002188 0.0001553-0.0010542-0.0137488-0.0167859
           dz  0.0004968-0.0001254 0.0009591 0.0002456 0.0004383-0.0000195
  26 h     dx -0.0049914 0.0032982 0.0000424-0.0019219-0.0163777 0.0238294
           dy  0.0032930-0.0015406-0.0001139-0.0010262-0.0128110 0.0175145
           dz  0.0000407-0.0001133 0.0017238-0.0001618 0.0003367-0.0010437
  27 c     dx -0.0000446 0.0000162-0.0001782-0.1538427 0.0508795-0.0014064
           dy  0.0000677 0.0000942-0.0003122 0.0520296-0.1125829 0.0009416
           dz  0.0001661-0.0002682 0.0003552-0.0014185 0.0009292-0.0782714
  28 h     dx -0.0000803 0.0000673 0.0000076-0.0464508 0.0022326 0.0029295
           dy -0.0000741 0.0000625 0.0000773 0.0024639-0.1398339-0.1178545
           dz  0.0000168-0.0000769-0.0000729 0.0031662-0.1187216-0.2045811
  29 h     dx -0.0003034 0.0005081-0.0006574-0.0461678 0.0023301-0.0034159
           dy -0.0005751 0.0006650-0.0002730 0.0025633-0.1264040 0.1134855
           dz  0.0007008-0.0002385 0.0003022-0.0036506 0.1144027-0.2180004
  30 h     dx  0.0001433-0.0002210 0.0001995-0.0023031 0.0164675-0.0251739
           dy -0.0002049 0.0000646-0.0000814 0.0011610-0.0114984 0.0158964
           dz  0.0001811-0.0000765-0.0000090-0.0000268-0.0001712-0.0000394
  31 h     dx -0.0000105 0.0000495-0.0001181-0.0215445-0.0185339 0.0005623
           dy -0.0000839 0.0000410 0.0000301 0.0167035 0.0124197-0.0004134
           dz  0.0000865-0.0000471-0.0000208-0.0004685-0.0003901-0.0014795
  32 h     dx  0.0000195 0.0000102 0.0000266-0.0022458 0.0179512 0.0242253
           dy  0.0000152-0.0000491-0.0000024 0.0011179-0.0123936-0.0151778
           dz -0.0000199 0.0000093-0.0000249-0.0000288 0.0008804 0.0007957

   ATOM             25 h                          26 h 
                  dx        dy        dz        dx        dy        dz
  25 h     dx  0.0552386
           dy -0.0025350 0.1527129
           dz -0.0032898 0.1313581 0.2192318
  26 h     dx -0.0004913-0.0002997 0.0003860 0.0550162
           dy -0.0003763 0.0116475-0.0164273-0.0028706 0.1384504
           dz -0.0004428 0.0145413-0.0224376 0.0039854-0.1271171 0.2334989
  27 c     dx  0.0020407 0.0010988 0.0001442 0.0020275 0.0010988-0.0002104
           dy -0.0005764 0.0005467 0.0001153-0.0005317 0.0005302-0.0001393
           dz -0.0010166 0.0003149 0.0001204 0.0010519-0.0003228 0.0001524
  28 h     dx -0.0046488-0.0034777 0.0002092 0.0011173 0.0007995 0.0004495
           dy -0.0035889-0.0018792 0.0003486 0.0007572 0.0003133 0.0001956
           dz  0.0001617 0.0003410 0.0017470-0.0004897-0.0001511 0.0009641
  29 h     dx  0.0011217 0.0007595-0.0004924-0.0046473-0.0034799 0.0000006
           dy  0.0007974 0.0003134-0.0001695-0.0035979-0.0019183-0.0001364
           dz  0.0004409 0.0001704 0.0009737 0.0000478-0.0001393 0.0017706
  30 h     dx -0.0000898-0.0000863 0.0000422-0.0002240-0.0005818 0.0006853
           dy  0.0000585 0.0000632-0.0000636 0.0005506 0.0006405-0.0001906
           dz -0.0000002 0.0000753-0.0000909-0.0006647-0.0002201 0.0002014
  31 h     dx  0.0003314 0.0001097-0.0001311 0.0003318 0.0001168 0.0001238
           dy  0.0001518 0.0000745 0.0002852 0.0001316 0.0000389-0.0002768
           dz  0.0003395 0.0003371 0.0002344-0.0003474-0.0003298 0.0002691
  32 h     dx -0.0002184-0.0006079-0.0006582-0.0000903-0.0000902-0.0000336
           dy  0.0005794 0.0006608 0.0001637 0.0000590 0.0000606 0.0000573
           dz  0.0006412 0.0001969 0.0001737-0.0000015-0.0000780-0.0000915

   ATOM             27 c                          28 h 
                  dx        dy        dz        dx        dy        dz
  27 c     dx  0.4942978
           dy  0.0481013 0.5322350
           dz -0.0013950 0.0005395 0.5575805
  28 h     dx -0.0023630 0.0189193 0.0239988 0.0557555
           dy  0.0012763-0.0116793-0.0144232-0.0025233 0.1539467
           dz -0.0001209 0.0011542 0.0008040-0.0034922 0.1324333 0.2204181
  29 h     dx -0.0024189 0.0175123-0.0250554-0.0005052-0.0003758 0.0003561
           dy  0.0013105-0.0108960 0.0151005-0.0004180 0.0118328-0.0164585
           dz  0.0000431-0.0005130 0.0000503-0.0003594 0.0144858-0.0224792
  30 h     dx -0.0472231 0.0047272-0.0080918 0.0012738-0.0007432 0.0004159
           dy  0.0051098-0.1264647 0.1175557-0.0006800 0.0001498-0.0001646
           dz -0.0087060 0.1178177-0.2234745-0.0005109 0.0001422 0.0009094
  31 h     dx -0.2105165-0.1246030 0.0037868 0.0010903-0.0000231 0.0006453
           dy -0.1256426-0.1417477 0.0028906-0.0009265 0.0008830-0.0000181
           dz  0.0038382 0.0029160-0.0476326 0.0001832 0.0003460 0.0000613
  32 h     dx -0.0471896 0.0049779 0.0075043-0.0050618 0.0033942-0.0001811
           dy  0.0054204-0.1403932-0.1222633 0.0037166-0.0012012 0.0006789
           dz  0.0080976-0.1225517-0.2094495-0.0003780 0.0003632 0.0016696

   ATOM             29 h                          30 h 
                  dx        dy        dz        dx        dy        dz
  29 h     dx  0.0555277
           dy -0.0025989 0.1389622
           dz  0.0039969-0.1278946 0.2354333
  30 h     dx -0.0050606 0.0033972-0.0000026 0.0509006
           dy  0.0037331-0.0012623-0.0005189-0.0091010 0.1369658
           dz  0.0001756-0.0002041 0.0017174 0.0096055-0.1313678 0.2419610
  31 h     dx  0.0010868-0.0000592-0.0006437 0.0014525 0.0012695 0.0004888
           dy -0.0009361 0.0008637-0.0000251-0.0138630-0.0113708-0.0006396
           dz -0.0001330-0.0003884 0.0000850 0.0227630 0.0165458-0.0000763
  32 h     dx  0.0012737-0.0007872-0.0003816-0.0010034-0.0008387-0.0005980
           dy -0.0006463 0.0001668 0.0002119-0.0007762 0.0122137 0.0150101
           dz  0.0005515-0.0001119 0.0008989 0.0006070-0.0169715-0.0214976

   ATOM             31 h                          32 h 
                  dx        dy        dz        dx        dy        dz
  31 h     dx  0.2317647
           dy  0.1358990 0.1526611
           dz -0.0041433-0.0032358 0.0468924
  32 h     dx  0.0014038-0.0151685-0.0219321 0.0508278
           dy  0.0011990-0.0122675-0.0158664-0.0094043 0.1525219
           dz -0.0005606 0.0013715 0.0008450-0.0087470 0.1364748 0.2263282
 

   *** projected hessian written onto $hessian (projected), file=<hessian> ***

 dipole moment in principle axis system (a.u.) :
     0.0000003602     0.0000006665    -0.0000101150
 norm :  1.014336908907131E-005

 rotational constants b for rotations around axis of inertia
 and optical intensities for (1 <-- 0) transition

   b   :     0.2840160501     0.0084701376     0.0083515785   (cm**(-1))
   b   :        8514.5870         253.9283         250.3740     (MHz)
  int. :     0.0000000000     0.0000000000     0.0000000001     (a.u.)

   x   :     0.9999846813    -0.0053092083     0.0015650869
   y   :     0.0052637190     0.9996007006     0.0277620702
   z   :    -0.0017118565    -0.0277534068     0.9996133342

   ***  normal modes written onto $vibrational normal modes, file=<vib_normal_modes>  ***

 keyword $vibrational reduced masses missing in file <control>


   ***  vibrational spectroscopic data written onto$vibrational spectrum   
        file=<vibspectrum>  ***

          ---------------------------------------------------
          NORMAL MODES and VIBRATIONAL FREQUENCIES (cm**(-1))
          ---------------------------------------------------

 imaginary wave numbers indicate a negative curvature of the energy surface.
 zero frequency modes have no physical meaning except being generators of
 translations and rotations. each vibrational normal mode - given in terms of
[...]
                  z   0.00053  0.00054 -0.03771 -0.04150  0.00038 -0.00121
 19   h           x  -0.00123 -0.00548  0.00515  0.00169 -0.00110  0.00330
                  y   0.11844  0.19122 -0.20622 -0.07664 -0.02659 -0.13424
                  z   0.15994  0.25796 -0.25319 -0.09398 -0.03521 -0.18031
 20   h           x  -0.00193 -0.00647 -0.00682 -0.00254 -0.00115  0.00392
                  y   0.10462  0.17193  0.20962  0.08321 -0.01654 -0.11801
                  z  -0.15890 -0.26046 -0.28966 -0.11556  0.02540  0.17830
 21   c           x   0.00025 -0.00026  0.00010  0.00010 -0.00073 -0.00068
                  y  -0.02446 -0.00240 -0.00061  0.00030  0.01708  0.01818
                  z  -0.00007 -0.00048  0.02563  0.04233 -0.00150  0.00063
 22   h           x  -0.00479 -0.00031 -0.00445 -0.00479  0.00411  0.00341
                  y   0.18292  0.10324  0.18046  0.19685 -0.09550 -0.13246
                  z   0.24747  0.13930  0.22177  0.24249 -0.12807 -0.17834
 23   h           x  -0.00560 -0.00095  0.00540  0.00620  0.00430  0.00425
                  y   0.16693  0.09641 -0.17648 -0.19315 -0.08130 -0.12817
                  z  -0.25392 -0.14596  0.24389  0.26762  0.12323  0.19309
 24   c           x  -0.00046 -0.00105  0.00003 -0.00005 -0.00148 -0.00117
                  y   0.02167  0.03276 -0.00105  0.00090  0.04180  0.03176
                  z  -0.00000 -0.00009 -0.00852 -0.01756  0.00020 -0.00069
 25   h           x  -0.00397 -0.00146  0.00294  0.00479  0.00313  0.00441
                  y   0.15527  0.01905 -0.11749 -0.20098 -0.09895 -0.11652
                  z   0.20891  0.02492 -0.14360 -0.24719 -0.13403 -0.15631
 26   h           x  -0.00443 -0.00131 -0.00406 -0.00611  0.00389  0.00463
                  y   0.13696  0.01266  0.12451  0.19729 -0.10088 -0.09766
                  z  -0.20796 -0.01905 -0.17266 -0.27321  0.15235  0.14850
 27   c           x  -0.00211 -0.00203 -0.00011 -0.00022 -0.00105  0.00039
                  y  -0.00068 -0.00340  0.00028  0.00003 -0.00723 -0.00704
                  z  -0.00006 -0.00005  0.00089  0.00219 -0.00008  0.00007
 28   h           x   0.00469  0.00642 -0.00123 -0.00219  0.00662  0.00438
                  y  -0.13840 -0.20750  0.04773  0.07845 -0.26630 -0.19852
                  z  -0.18640 -0.27897  0.05888  0.09497 -0.35701 -0.26635
 29   h           x   0.00483  0.00674  0.00103  0.00288  0.00701  0.00495
                  y  -0.12192 -0.18355 -0.03505 -0.08899 -0.23275 -0.18109
                  z   0.18629  0.27986  0.04755  0.12384  0.35419  0.27475
 30   h           x  -0.00151 -0.00197 -0.00053 -0.00136 -0.00277 -0.00268
                  y  -0.00660  0.00746  0.00239  0.00967  0.03093  0.03731
                  z   0.00933 -0.01310 -0.00308 -0.01348 -0.04973 -0.05879
 31   h           x   0.02661  0.02875  0.00094  0.00265  0.02090  0.00352
                  y   0.02294  0.02393  0.00080  0.00220  0.01718  0.00303
                  z  -0.00072 -0.00078 -0.00020 -0.00001 -0.00062 -0.00017
 32   h           x  -0.00159 -0.00203  0.00071  0.00128 -0.00285 -0.00258
                  y  -0.00629  0.00973 -0.00654 -0.01226  0.03663  0.04190
                  z  -0.00786  0.01456 -0.00836 -0.01519  0.05148  0.05812

reduced mass(g/mol)     1.059    1.059    1.098    1.099    1.059    1.059


       mode              85       86       87       88       89       90

     frequency        3012.71  3018.43  3018.50  3020.73  3030.44  3039.78

     symmetry            a        a        a        a        a        a   

        IR               YES      YES      YES      YES      YES      YES
|dDIP/dQ|   (a.u.)     0.0000   0.0075   0.0000   0.0002   0.0000   0.0016
intensity (km/mol)       0.00    99.60     0.00     0.08     0.00     4.63
intensity (  %   )       0.00    42.11     0.00     0.03     0.00     1.96
 
       RAMAN             YES      YES      YES      YES      YES      YES
 
  1   c           x   0.00005  0.00048  0.00051 -0.00007  0.00008 -0.00007
                  y  -0.00016  0.00294  0.00231 -0.00053  0.00075 -0.00080
                  z   0.02739 -0.00084  0.00003 -0.03732  0.04453 -0.04369
  2   c           x   0.00027 -0.02639 -0.02668  0.00061 -0.00013  0.00009
                  y  -0.00022  0.02192  0.02245 -0.00035 -0.00021  0.00039
                  z  -0.00433 -0.00012 -0.00029  0.00780 -0.01264  0.01699
  3   h           x  -0.00314  0.28366  0.28671 -0.00634  0.00118 -0.00072
                  y  -0.00257  0.22275  0.22510 -0.00486  0.00077 -0.00037
                  z  -0.00085 -0.00665 -0.00677  0.00265 -0.00463  0.00627
  4   h           x   0.00206  0.01348  0.01380 -0.00320  0.00355 -0.00388
                  y  -0.01900 -0.22959 -0.23444  0.04195 -0.05865  0.07632
                  z   0.02639  0.34713  0.35443 -0.05964  0.08326 -0.10879
  5   h           x  -0.00209  0.01310  0.01328  0.00237 -0.00319  0.00357
                  y   0.02423 -0.25414 -0.25782 -0.03308  0.06049 -0.08069
                  z   0.03015 -0.33922 -0.34426 -0.04067  0.07582 -0.10173
  6   c           x  -0.00009  0.00004  0.00006  0.00005  0.00001 -0.00006
                  y  -0.00062  0.00512  0.00485  0.00030  0.00005 -0.00055
                  z  -0.04422  0.00031 -0.00055  0.02842  0.00127 -0.03004
  7   h           x   0.00401 -0.00083 -0.00077 -0.00572  0.00609 -0.00422
                  y  -0.12821 -0.01485 -0.01489  0.17601 -0.20787  0.20341
                  z  -0.15701 -0.02168 -0.02132  0.21735 -0.25760  0.25215
  8   h           x  -0.00471 -0.00054 -0.00076  0.00655 -0.00697  0.00501
                  y   0.12997 -0.02030 -0.01279 -0.16959  0.19878 -0.19380
                  z  -0.18077  0.03185  0.02097  0.23658 -0.27813  0.27116
  9   c           x   0.00003 -0.00008 -0.00004  0.00007 -0.00008  0.00001
                  y  -0.00008  0.00154  0.00041  0.00045 -0.00063  0.00006
                  z   0.00750  0.00087  0.00031  0.03319 -0.03969  0.00419
 10   h           x  -0.00491 -0.00018 -0.00043  0.00411 -0.00236 -0.00147
                  y   0.20905 -0.03307 -0.02733 -0.13182 -0.00523  0.13707
                  z   0.25832 -0.04369 -0.03639 -0.16350 -0.00686  0.17133
 11   h           x   0.00604 -0.00017 -0.00018 -0.00478  0.00235  0.00215
                  y  -0.20153 -0.02667 -0.02896  0.12813  0.00469 -0.13058
                  z   0.28010  0.03997  0.04296 -0.17884 -0.00689  0.18334
 12   c           x   0.00011 -0.00009 -0.00005 -0.00007 -0.00007  0.00009
                  y   0.00029  0.00191  0.00118 -0.00044 -0.00039  0.00061
                  z   0.03766 -0.00070  0.00026 -0.03052 -0.02563  0.03611
 13   h           x   0.00017  0.00075  0.00060  0.00524 -0.00365 -0.00343
                  y  -0.03390 -0.01453 -0.00499 -0.15413  0.18249 -0.01936
                  z  -0.04195 -0.01904 -0.00651 -0.19175  0.22777 -0.02401
 14   h           x  -0.00054  0.00051  0.00054 -0.00609  0.00461  0.00339
                  y   0.03488 -0.00541 -0.00178  0.14879 -0.17502  0.01862
                  z  -0.04870  0.00858  0.00283 -0.20782  0.24510 -0.02592
 15   c           x  -0.00011 -0.00009  0.00005 -0.00007  0.00007  0.00009
                  y  -0.00034  0.00192 -0.00116 -0.00044  0.00039  0.00061
                  z  -0.03767 -0.00069 -0.00028 -0.03051  0.02563  0.03611
 16   h           x   0.00409  0.00009 -0.00010 -0.00478 -0.00029  0.00595
                  y  -0.17643 -0.00882 -0.00821  0.14166  0.11762 -0.16527
                  z  -0.21858 -0.01214 -0.01087  0.17657  0.14697 -0.20682
 17   h           x  -0.00536  0.00037 -0.00011  0.00570  0.00103 -0.00703
                  y   0.17285 -0.01388 -0.00504 -0.13643 -0.11301  0.15807
                  z  -0.24004  0.02054  0.00770  0.19035  0.15800 -0.22122
 18   c           x  -0.00003 -0.00008  0.00004  0.00007  0.00009  0.00001
                  y   0.00004  0.00155 -0.00039  0.00046  0.00064  0.00006
                  z  -0.00749  0.00087 -0.00029  0.03319  0.03969  0.00419
 19   h           x  -0.00408  0.00008  0.00010 -0.00477  0.00028  0.00594
                  y   0.17678 -0.00893  0.00812  0.14168 -0.11765 -0.16529
                  z   0.21901 -0.01227  0.01075  0.17657 -0.14698 -0.20680
 20   h           x   0.00537  0.00037  0.00011  0.00571 -0.00103 -0.00705
                  y  -0.17263 -0.01394  0.00484 -0.13638  0.11297  0.15802
                  z   0.23975  0.02064 -0.00740  0.19030 -0.15796 -0.22119
 21   c           x   0.00009  0.00004 -0.00006  0.00005 -0.00001 -0.00006
                  y   0.00060  0.00518 -0.00479  0.00030 -0.00005 -0.00055
                  z   0.04422  0.00030  0.00056  0.02841 -0.00127 -0.03004
 22   h           x  -0.00017  0.00075 -0.00059  0.00523  0.00364 -0.00344
                  y   0.03408 -0.01458  0.00477 -0.15417 -0.18255 -0.01933
                  z   0.04219 -0.01911  0.00622 -0.19179 -0.22783 -0.02397
 23   h           x   0.00053  0.00051 -0.00054 -0.00611 -0.00463  0.00339
                  y  -0.03457 -0.00545  0.00175  0.14875  0.17499  0.01861
                  z   0.04825  0.00863 -0.00277 -0.20778 -0.24508 -0.02591
 24   c           x  -0.00005  0.00048 -0.00050 -0.00007 -0.00007 -0.00006
                  y   0.00009  0.00297 -0.00227 -0.00055 -0.00077 -0.00081
                  z  -0.02739 -0.00084 -0.00004 -0.03731 -0.04453 -0.04369
 25   h           x   0.00490 -0.00018  0.00042  0.00411  0.00236 -0.00148
                  y  -0.20890 -0.03341  0.02686 -0.13179  0.00523  0.13709
                  z  -0.25819 -0.04416  0.03579 -0.16352  0.00686  0.17140
 26   h           x  -0.00604 -0.00017  0.00018 -0.00478 -0.00235  0.00215
                  y   0.20165 -0.02705  0.02864  0.12808 -0.00469 -0.13057
                  z  -0.28020  0.04052 -0.04247 -0.17872  0.00689  0.18327
 27   c           x  -0.00027 -0.02673  0.02634  0.00060  0.00013  0.00009
                  y   0.00023  0.02221 -0.02217 -0.00034  0.00022  0.00040
                  z   0.00433 -0.00013  0.00029  0.00780  0.01264  0.01700
 28   h           x  -0.00404 -0.00084  0.00075 -0.00575 -0.00613 -0.00425
                  y   0.12868 -0.01504  0.01474  0.17613  0.20801  0.20352
                  z   0.15763 -0.02195  0.02108  0.21749  0.25775  0.25226
 29   h           x   0.00467 -0.00055  0.00076  0.00651  0.00693  0.00497
                  y  -0.12955 -0.02046  0.01249 -0.16940 -0.19868 -0.19372
                  z   0.18015  0.03212 -0.02052  0.23633  0.27802  0.27108
 30   h           x  -0.00205  0.01361 -0.01357 -0.00318 -0.00353 -0.00386
                  y   0.01893 -0.23263  0.23146  0.04188  0.05864  0.07631
                  z  -0.02628  0.35174 -0.34994 -0.05953 -0.08324 -0.10878
 31   h           x   0.00311  0.28736 -0.28300 -0.00630 -0.00119 -0.00072
                  y   0.00254  0.22566 -0.22218 -0.00484 -0.00078 -0.00038
                  z   0.00085 -0.00670  0.00664  0.00265  0.00463  0.00627
 32   h           x   0.00210  0.01332 -0.01316  0.00238  0.00321  0.00358
                  y  -0.02431 -0.25745  0.25447 -0.03314 -0.06052 -0.08071
                  z  -0.03026 -0.34363  0.33979 -0.04076 -0.07585 -0.10176

reduced mass(g/mol)     1.100    1.035    1.035    1.102    1.104    1.105


       mode              91       92       93       94       95       96

     frequency        3047.96  3054.93  3080.56  3080.66  3085.48  3085.50

     symmetry            a        a        a        a        a        a   

        IR               YES      YES      YES      YES      YES      YES
|dDIP/dQ|   (a.u.)     0.0000   0.0105   0.0000   0.0092   0.0074   0.0001
intensity (km/mol)       0.00   194.26     0.00   150.62    96.73     0.01
intensity (  %   )       0.00    82.12     0.00    63.68    40.89     0.01
 
       RAMAN             YES      YES      YES      YES      YES      YES
 
  1   c           x   0.00005  0.00002 -0.00003  0.00003  0.00011 -0.00012
                  y   0.00060  0.00029 -0.00083  0.00085  0.00568 -0.00581
                  z   0.03248  0.01561 -0.02149  0.02177 -0.00122  0.00122
  2   c           x  -0.00007 -0.00005 -0.00206  0.00211  0.03683 -0.03773
                  y  -0.00045 -0.00034 -0.00429  0.00438  0.05203 -0.05323
                  z  -0.01752 -0.01226 -0.06087  0.06112 -0.00466  0.00470
  3   h           x   0.00060  0.00047  0.02559 -0.02632 -0.47777  0.48939
                  y   0.00028  0.00024  0.01865 -0.01918 -0.35518  0.36379
                  z  -0.00624 -0.00412 -0.01570  0.01577  0.01017 -0.01043
  4   h           x   0.00368  0.00264  0.02002 -0.02009  0.02088 -0.02133
                  y  -0.07741 -0.05370 -0.26247  0.26337 -0.14276  0.14554
                  z   0.11060  0.07678  0.37154 -0.37276  0.23037 -0.23495
  5   h           x  -0.00342 -0.00249 -0.02111  0.02125  0.01837 -0.01881
                  y   0.08250  0.05749  0.29528 -0.29672 -0.12642  0.12941
                  z   0.10431  0.07276  0.37288 -0.37470 -0.18466  0.18900
  6   c           x   0.00008  0.00005 -0.00000  0.00001 -0.00018  0.00018
                  y   0.00075  0.00051 -0.00019  0.00020  0.00054 -0.00048
                  z   0.04031  0.02697 -0.00779  0.00816 -0.00040  0.00038
  7   h           x   0.00126 -0.00050 -0.00370  0.00369  0.00098 -0.00101
                  y  -0.15179 -0.07356  0.09905 -0.10040 -0.02620  0.02692
                  z  -0.18773 -0.09060  0.12420 -0.12586 -0.03388  0.03479
  8   h           x  -0.00181  0.00025  0.00389 -0.00389  0.00145 -0.00149
                  y   0.14449  0.07008 -0.08973  0.09090 -0.03312  0.03373
                  z  -0.20167 -0.09741  0.12673 -0.12836  0.04789 -0.04876
  9   c           x   0.00007  0.00007 -0.00000  0.00000 -0.00008  0.00009
                  y   0.00064  0.00069 -0.00009  0.00010  0.00051 -0.00054
                  z   0.03548  0.03780 -0.00275  0.00341 -0.00017  0.00014
 10   h           x   0.00557  0.00561  0.00115 -0.00103 -0.00106  0.00111
                  y  -0.18485 -0.12450  0.03678 -0.03859 -0.00342  0.00324
                  z  -0.23057 -0.15492  0.04531 -0.04754 -0.00453  0.00427
 11   h           x  -0.00654 -0.00629 -0.00087  0.00074 -0.00114  0.00120
                  y   0.17599  0.11850 -0.03430  0.03596 -0.00654  0.00624
                  z  -0.24656 -0.16560  0.04740 -0.04968  0.00937 -0.00893
 12   c           x   0.00003  0.00011 -0.00000  0.00001  0.00001 -0.00001
                  y   0.00024  0.00078 -0.00001  0.00004  0.00010  0.00008
                  z   0.01382  0.04335 -0.00070  0.00195 -0.00008  0.00003
 13   h           x   0.00629  0.00294 -0.00155  0.00148  0.00052 -0.00055
                  y  -0.16290 -0.17464  0.01361 -0.01676 -0.00251  0.00266
                  z  -0.20332 -0.21731  0.01667 -0.02054 -0.00329  0.00345
 14   h           x  -0.00715 -0.00378  0.00156 -0.00150  0.00067 -0.00071
                  y   0.15535  0.16646 -0.01256  0.01554 -0.00372  0.00363
                  z  -0.21741 -0.23224  0.01721 -0.02131  0.00532 -0.00517
 15   c           x  -0.00003  0.00011  0.00000  0.00001  0.00001  0.00001
                  y  -0.00025  0.00078  0.00001  0.00004  0.00010 -0.00008
                  z  -0.01383  0.04335  0.00071  0.00194 -0.00009 -0.00003
 16   h           x  -0.00232  0.00549  0.00053 -0.00003 -0.00006  0.00013
                  y  -0.06361 -0.20023  0.00342 -0.00944 -0.00041 -0.00032
                  z  -0.07930 -0.24955  0.00417 -0.01158 -0.00059 -0.00040
 17   h           x   0.00198 -0.00674 -0.00050 -0.00003 -0.00005  0.00018
                  y   0.06075  0.19099 -0.00327  0.00889 -0.00113 -0.00001
                  z  -0.08469 -0.26613  0.00447 -0.01218  0.00164  0.00002
 18   c           x  -0.00007  0.00008  0.00000  0.00000 -0.00009 -0.00009
                  y  -0.00064  0.00069  0.00009  0.00010  0.00053  0.00053
                  z  -0.03549  0.03780  0.00277  0.00339 -0.00017 -0.00014
 19   h           x   0.00232  0.00547 -0.00053 -0.00002 -0.00006 -0.00013
                  y   0.06365 -0.20026 -0.00348 -0.00942 -0.00040  0.00032
                  z   0.07934 -0.24954 -0.00425 -0.01155 -0.00059  0.00041
 20   h           x  -0.00198 -0.00676  0.00050 -0.00004 -0.00006 -0.00018
                  y  -0.06075  0.19095  0.00333  0.00887 -0.00112  0.00004
                  z   0.08471 -0.26611 -0.00455 -0.01215  0.00164 -0.00006
 21   c           x  -0.00008  0.00005  0.00001  0.00001 -0.00018 -0.00018
                  y  -0.00075  0.00051  0.00019  0.00020  0.00055  0.00047
                  z  -0.04031  0.02697  0.00784  0.00811 -0.00040 -0.00037
 22   h           x  -0.00627  0.00292  0.00156  0.00147  0.00053  0.00054
                  y   0.16297 -0.17467 -0.01373 -0.01667 -0.00258 -0.00261
                  z   0.20338 -0.21732 -0.01681 -0.02044 -0.00338 -0.00339
 23   h           x   0.00716 -0.00380 -0.00157 -0.00149  0.00069  0.00070
                  y  -0.15532  0.16642  0.01267  0.01545 -0.00380 -0.00353
                  z   0.21740 -0.23221 -0.01735 -0.02120  0.00543  0.00504
 24   c           x  -0.00005  0.00002  0.00003  0.00003  0.00012  0.00011
                  y  -0.00062  0.00029  0.00084  0.00084  0.00581  0.00568
                  z  -0.03248  0.01560  0.02163  0.02162 -0.00123 -0.00118
 25   h           x  -0.00558  0.00561 -0.00115 -0.00102 -0.00109 -0.00108
                  y   0.18486 -0.12449 -0.03704 -0.03835 -0.00351 -0.00318
                  z   0.23065 -0.15495 -0.04564 -0.04725 -0.00465 -0.00419
 26   h           x   0.00654 -0.00629  0.00087  0.00074 -0.00117 -0.00117
                  y  -0.17596  0.11847  0.03454  0.03574 -0.00666 -0.00607
                  z   0.24645 -0.16552 -0.04771 -0.04936  0.00955  0.00869
 27   c           x   0.00007 -0.00005  0.00204  0.00207  0.03770  0.03687
                  y   0.00045 -0.00034  0.00429  0.00432  0.05325  0.05201
                  z   0.01752 -0.01226  0.06127  0.06072 -0.00473 -0.00455
 28   h           x  -0.00129 -0.00048  0.00374  0.00368  0.00101  0.00099
                  y   0.15185 -0.07359 -0.09972 -0.09975 -0.02689 -0.02637
                  z   0.18778 -0.09062 -0.12502 -0.12504 -0.03476 -0.03408
 29   h           x   0.00178  0.00027 -0.00390 -0.00385  0.00148  0.00144
                  y  -0.14442  0.07004  0.09033  0.09031 -0.03383 -0.03289
                  z   0.20160 -0.09737 -0.12759 -0.12755  0.04893  0.04756
 30   h           x  -0.00366  0.00263 -0.02010 -0.01992  0.02132  0.02079
                  y   0.07740 -0.05369  0.26426  0.26170 -0.14593 -0.14202
                  z  -0.11059  0.07677 -0.37412 -0.37044  0.23553  0.22931
 31   h           x  -0.00060  0.00047 -0.02545 -0.02583 -0.48901 -0.47820
                  y  -0.00028  0.00024 -0.01853 -0.01882 -0.36353 -0.35547
                  z   0.00624 -0.00412  0.01579  0.01566  0.01034  0.01013
 32   h           x   0.00344 -0.00250  0.02130  0.02115  0.01885  0.01842
                  y  -0.08251  0.05749 -0.29717 -0.29471 -0.12957 -0.12663
                  z  -0.10432  0.07276 -0.37523 -0.37214 -0.18922 -0.18489

reduced mass(g/mol)     1.106    1.105    1.102    1.102    1.101    1.101
 

         **************************************************************
         *                                                            *
         *  zero point VIBRATIONAL energy  :      0.3013094  Hartree  *
         *    SCF-energy                   :   -394.5380820           *
         *    SCF + E(vib0)                :   -394.2367726           *
         *                                                            *
         **************************************************************




 time elapsed for vibrational analysis     2.49 sec


    ------------------------------------------------------------------------
         total  cpu-time :  6 hours 35 minutes and 15 seconds
         total wall-time : 51 minutes and  5 seconds
    ------------------------------------------------------------------------

   ****  force : all done  ****


    2020-06-19 05:21:06.012 

