           Doing BLAS/Lapack in the master proc. with 16 CPUs.
           SMPCPUS    set: Shared-memory Parallelization with  28 CPUs.

           SMP Parallelization Reference:
           C. van Wullen, J. Comput. Chem. 32 (2011) 1195--1201

 force (c-12-37) : TURBOMOLE V7.2 ( 21454 ) 4 Oct 2017 at 12:48:15
 Copyright (C) 2017 TURBOMOLE GmbH, Karlsruhe


    2020-06-21 22:26:40.446 



                             T U R B O M O L E   

                          a o f o r c e - program

                        using direct algorithms for

                       SCF level calculations of
                         * harmonic force constants
                         * hyperpolarizabilities
                         * IR and RAMAN intensities
                         * VCD intensities

                       DFT level calculations of
                         * harmonic force constants
                         * IR intensities
                                                   
       Stephan Boecker, Peter Deglmann, Filipp Furche and Marco Haeser
                          Quantum Chemistry Group
                          Universitaet  Karlsruhe
                                   Germany

 
 
 
 
     References :
 
       RI-J implementation:
         Peter Deglmann, Klaus May, Filipp Furche, Reinhart Ahlrichs
                 Chem. Phys. Lett. 384:103 (2004)
 
       Efficiency, technical details:
         Peter Deglmann, Filipp Furche, Reinhart Ahlrichs
                 Chem. Phys. Lett. 362:511 (2002)
 
       Search of lowest eigenvalues by iterative diagonalization:
         Peter Deglmann, Filipp Furche
                 J. Chem. Phys. 117:9535 (2002)
 
       Vibrational circular dichroism implementation:
        Kevin Reiter, Michael Kuehn, Florian Weigend
                 J. Chem. Phys. 146:054102 (2017)  
 
 


              +--------------------------------------------------+
              | Atomic coordinate, charge and isotop information |
              +--------------------------------------------------+

                    atomic coordinates            atom    charge  isotop
          1.29060313   -3.63433972    0.94104556    c      6.000     0
         -0.88950986   -3.76795423   -0.94543681    c      6.000     0
          1.11734091   -1.98414788    2.17012618    h      1.000     0
          3.11065218   -3.50687448   -0.02743383    h      1.000     0
          1.33938874   -5.31054549    2.14684526    h      1.000     0
         -0.92848274   -2.10163103   -2.16441120    h      1.000     0
         -2.71055065   -3.87924767    0.02318289    h      1.000     0
         -0.72491430   -5.42925471   -2.16160680    h      1.000     0
         -1.12382396    3.64227573    1.10964128    c      6.000     0
          0.72268781    3.76007800   -1.10529977    c      6.000     0
         -2.40563090    5.26181119    1.10120242    h      1.000     0
         -0.12412599    3.64470105    2.91722530    h      1.000     0
         -2.27696627    1.93100464    1.03307054    h      1.000     0
          1.86211521    5.48147317   -1.03784238    h      1.000     0
         -0.27628043    3.74103448   -2.91318709    h      1.000     0
          2.01749711    2.15161698   -1.08712154    h      1.000     0
 
       center of nuclear mass  :   -0.00000784    0.00001094   -0.00000910
       center of nuclear charge:   -0.00000596    0.00000830   -0.00000691

              +--------------------------------------------------+
              |               basis set information              |
              +--------------------------------------------------+

              we will work with the 1s 3p 5d 7f 9g ... basis set
              ...i.e. with spherical basis functions...

   type   atoms  prim   cont   basis
   ---------------------------------------------------------------------------
    c        4     46     31   def2-TZVP   [5s3p2d1f|11s6p2d1f]
    h       12      8      6   def2-TZVP   [3s1p|5s1p]
   ---------------------------------------------------------------------------
   total:   16    280    196
   ---------------------------------------------------------------------------

   total number of primitive shells          :   26
   total number of contracted shells         :   92
   total number of cartesian basis functions :  216
   total number of SCF-basis functions       :  196

 
             FOUND RI-J FLAG !
 

 NOTE: THIS IS A PRELIMINARY IMPLEMENTATION. THE RI APPROXIMATION IS
       PRESENTLY USED FOR CPKS CONTRIBUTIONS TO THE HESSIAN ONLY! SEE
       MANUAL FOR FURTHER DETAILS.

  
 AUXILIARY BASIS SET information:

              we will work with the 1s 3p 5d 7f 9g ... basis set
              ...i.e. with spherical basis functions...

   type   atoms  prim   cont   basis
   ---------------------------------------------------------------------------
    c        4     70     49   def2-TZVP   [6s4p3d1f1g|12s5p4d2f1g]
    h       12     16     11   def2-TZVP   [3s1p1d|5s2p1d]
   ---------------------------------------------------------------------------
   total:   16    472    328
   ---------------------------------------------------------------------------

   total number of primitive shells          :   32
   total number of contracted shells         :  120
   total number of cartesian basis functions :  388
   total number of SCF-basis functions       :  328


 symmetry group of the molecule :   c1 

 the group has the following generators :
   c1(z)

    1 symmetry operations found

 there are 1 real representations :   a   

 maximum number of shells which are related by symmetry :  1


 determining totally symmetric integral contributions 
    - equivalent to irreducible tensor elements - 
 which can be formed within each triple of representations :

             representation triple      contributions

              a     a     a               1

    mo occupation :
   irrep   mo's   occupied
    a      196       18
 
 number of basis functions   :                    196
 number of occupied orbitals :                     18
 
  MOs are in ASCII format !


 reading orbital data $scfmo  from file mos
 orbital characterization : scfconv=7
 time elapsed for calculating density matrices :   0.100 sec

 number of non-frozen orbitals          :   196
 number of non-frozen occupied orbitals :    18
 Blocking parameters 
 shells:
    index      start shell   last shell  start bf    last bf    #bf 
       1             1          92             1        216    216
  
           ----------------------
               RI - INFORMATION
           ----------------------

 biggest AO integral is expected to be     5.725698708

 Threshold for integral neglect (rithr2):   0.12E-10
 Threshold for integral neglect (rithr1):   0.12E-10

 Contributions to RI integral batches: 
  neglected integral batches:                   410
  direct contribution:                            0
  memory contribution:                  3868
 Core memory available (ricore):             55000 MiB
 Core memory needed for (P|Q) and Cholesky:      1 MiB
 Core memory used for integrals:                64 MiB
 
 ****************************************
 Memory allocated for RIDFT: 65 MiB
 ****************************************
 
  
           ------------------
           density functional
           ------------------
 TPSS global hybrid functional
 exchange:    9/10 (LDA+TPSS) + 1/10 HF
 correlation: LDA (PW) + TPSS

 spherical integration : Lebedev's spherical grid
 spherical gridsize    :                     4
    i.e. gridpoints    :                   434
 value for diffuse not defined
 radial integration    : Chebyshev 2nd kind (scaling 3)
 radial gridsize       :                     6
 integration cells     :                    16
 partition function    : becke
 partition sharpness   :                     3
  
 
 Derivatives of quadrature weights will be included
 
          Overall gridpoints after grid construction =        140244
 Ordering of quadrature gridpoints disabled.
 
 
 
 
 OCCUPIED-OCCUPIED TENSOR SPACES :

          IRREP   tensor space dimension   number of roots

           a               324                  42
 
 OCCUPIED-VIRTUAL TENSOR SPACES :

          IRREP   tensor space dimension   number of roots

           a              3204                  42
 
 
 
 
 CONSTRUCTING integral bounds

 setting up bound for integral derivative estimation

 increment for numerical differentiation : 0.00050000
 
 machine precision:   2.220446049250313E-016

 integral neglect threshold       :  0.10E-09
 integral storage threshold THIZE :  0.10E-04
 integral storage threshold THIME :         5

 
 
 
 PREPARING NUMERICAL INTEGRATION
 
 Remaining core memory for DFT =                125949 MB
 
 Memory needed per atom    =                   549 KiB
 
     i. e.                    16 atoms per loop

 Calculating ground state density on molecular grid

 Integral of ground state density: N =   36.00001984200142    


 
 
 CONSTRUCTING first deriv. of <mu|x,y,z|nu> -> Dip. deriv.
  dipole integral derivatives will be neglected if
  expon. factor <0.231481E-11
      ...terminated. cpu:       0.51       wall:       0.02
 
 
 
 
 CONSTRUCTING first deriv. of  <mu|nu>
                               <mu|h|nu>    -> RHS
              second deriv. of <mu|nu>      -> Hessian
                               <mu|h|nu>    -> Hessian
                               nucl. rep.   -> Hessian
     integrals are neglected if expon. factor <  2.314814814814815E-013
  _________________________________
 |                                 |
 |         DFTD3 V3.1 Rev 0        |
 | S.Grimme, University Bonn       |
 |         June 2014               |
 |   see standalone version        |
 |       dftd3 -h for options      |
 |_________________________________|
 
 Please cite DFT-D3 work done with this code as:
 S. Grimme, J. Antony, S. Ehrlich and H. Krieg,
 J. Chem. Phys, 132 (2010), 154104.
 If used with BJ-damping cite also
 S. Grimme, S. Ehrlich and L. Goerigk,
 J. Comput. Chem. 32 (2011), 1456-1465
 For DFT-D2 the reference is
 S. Grimme, J. Comput. Chem., 27 (2006), 1787-1799
 
      ...terminated. cpu:      17.93       wall:       0.88
 
 
 
 
 CONSTRUCTING second deriv. of 2e energy    -> Hessian
   treating Coulomb (and exchange) contribution
     integrals will be neglected if total contribution <  2.314814814814815E-009
      ...terminated. cpu:     115.23       wall:       4.25
   treating exchange-correlation contribution
      ...terminated. cpu:     202.31       wall:       7.34
 
 
 
 
 CONSTRUCTING S(i,j)xi
      ...terminated. cpu:       0.01       wall:       0.01
 
 
 
 
 CONSTRUCTING <i|x,y,z|j>*S(i,j)xi          -> Dip. deriv.
      ...terminated. cpu:       0.18       wall:       0.10
 
 
 
 
 CONSTRUCTING epsilon(i)*S(i,j)xi*S(i,j)chi -> Hessian
      ...terminated. cpu:       0.05       wall:       0.00
 
 
 
 
 CONSTRUCTING G(a,i)[S(k,l)xi]              -> RHS
              G(i,j)[S(k,l)xi]*S(i,j)chi    -> Hessian
 
         Maximum core memory set to                 126000 MB
         This corresponds to                346838 vectors in CAO basis
      ...terminated. cpu:     562.15       wall:      19.96
 
 
 
 
 CONSTRUCTING G(mu,nu)[D(kap,lam)]xi
 
          Maximum core memory set to                 126000 MB
          Atoms treated simultaneously :                    16
      ...terminated. cpu:     369.68       wall:      12.97
 
 
 
 
 CONSTRUCTING F(a,i)xi                      -> RHS
              F(i,j)xi*S(i,j)chi            -> Hessian
 
        Maximum core memory set to                126000 MB
        This corresponds to                619935 vectors in CAO basis
      ...terminated. cpu:       5.98       wall:       0.21
 
 
 
 
 CONSTRUCTING epsilon(i)*S(a,i)xi           -> RHS
      ...terminated. cpu:       0.95       wall:       0.03
 
 
 
 
 SOLVING CPHF equations
 
 Residuum convergence criterium   :  1.000000000000000E-005
 
 Maximum number of Davidson iterations set to                    25


                       Nonorthonormal Krylov Space Iteration


 total number of roots to be determined:  42


 maximum core memory set to ***** MB,
 corresponding to   344035 vectors in CAO basis


 maximum number of simultaneously treated vectors (including degeneracy):       42


 Iteration IRREP Converged      Max. Euclidean
                 roots          residual norm

    1       a        0        5.137808240066963D-02
 
    2       a        0        4.134735633806978D-03
 
    3       a        0        3.089287924248327D-04
 
    4       a       28        1.698122717768133D-05
 
    5       a       42        9.765502309286099D-06
 

 converged!

      ...terminated. cpu:    2244.79       wall:      86.16
 
 
 
 
 CONSTRUCTING <a|x,y,z|i>*U(a,i)xi          -> Dip. deriv.
      ...terminated. cpu:       0.44       wall:       0.02
 
 
 
 
 CONSTRUCTING RHS(a,i)xi*U(a,i)chi          -> Hessian
      ...terminated. cpu:       0.11       wall:       0.00
 
 
 
 

            -----------------------
            permanent dipole moment
            -----------------------

                                   x                y                z
    electronic part       :    0.0001165973     0.0001728599     0.0004482825
     nuclear   part       :   -0.0002143895     0.0002988690    -0.0002487314
     total                :   -0.0000977921     0.0004717289     0.0001995511

 with reference to the point :   0.0000000        0.0000000        0.0000000
 (given in atomic units)
    | dipole |       :    0.0013254086  debye

   ***  dipole moment & cartesian dipole gradients written onto
        $dipole, $dipgrad,  file=<dipgrad>  ***

             -----------------------------------
             rotational and vibrational analysis
             -----------------------------------


            ==============================================================
            ATOMIC WEIGHTS (average over the natural occurance of isotops)
            ==============================================================
            ('*' denotes special isotop !)
              1     c                12.01115
              2     c                12.01115
              3     h                 1.00797
              4     h                 1.00797
              5     h                 1.00797
              6     h                 1.00797
              7     h                 1.00797
              8     h                 1.00797
              9     c                12.01115
             10     c                12.01115
             11     h                 1.00797
             12     h                 1.00797
             13     h                 1.00797
             14     h                 1.00797
             15     h                 1.00797
             16     h                 1.00797

          -------------------------------------------------
          CARTESIAN FORCE CONSTANT MATRIX (hartree/bohr**2)
         (translational & rotational space projected out)
          -------------------------------------------------

   ATOM              1 c                           2 c 
                  dx        dy        dz        dx        dy        dz
   1 c     dx  0.5060350
           dy -0.0034866 0.5617825
           dz -0.0478387-0.0025459 0.5204304
   2 c     dx -0.1442930-0.0040876-0.0570165 0.5060135
           dy -0.0040712-0.0786192-0.0036329-0.0033127 0.5618453
           dz -0.0570220-0.0034739-0.1276147-0.0478275-0.0031477 0.5204375
   3 h     dx -0.0498113 0.0207688 0.0163025 0.0020976-0.0223548-0.0163097
           dy  0.0199254-0.2151136-0.1222011-0.0002020-0.0002224 0.0000901
           dz  0.0155068-0.1213505-0.1367030 0.0020903-0.0177772-0.0136619
   4 h     dx -0.2432662-0.0136893 0.1091079-0.0226369-0.0014671 0.0120526
           dy -0.0136963-0.0493777 0.0075781-0.0013164-0.0006940 0.0007549
           dz  0.1102904 0.0076466-0.1076621-0.0220182-0.0015097 0.0115615
   5 h     dx -0.0471369 0.0018617-0.0001451-0.0009023 0.0224647-0.0159251
           dy  0.0026475-0.2205495 0.1216972-0.0000488 0.0027037-0.0023719
           dz -0.0006868 0.1209765-0.1327690-0.0003254 0.0181598-0.0135546
   6 h     dx -0.0008144 0.0224447-0.0160624-0.0472060 0.0007783 0.0006520
           dy  0.0001432 0.0026039-0.0020904 0.0016779-0.2190015 0.1227376
           dz -0.0001959 0.0180302-0.0135722-0.0000350 0.1217790-0.1350966
   7 h     dx -0.0226352-0.0014187 0.0120520-0.2434842-0.0119147 0.1091833
           dy -0.0013548-0.0006953 0.0007239-0.0119175-0.0491330 0.0067508
           dz -0.0220268-0.0013676 0.0115612 0.1103711 0.0068184-0.1076738
   8 h     dx  0.0019814-0.0224522-0.0162358-0.0494424 0.0199450 0.0153950
           dy -0.0000544-0.0000758 0.0004115 0.0191656-0.2168275-0.1212628
           dz  0.0019815-0.0179423-0.0136565 0.0147708-0.1206236-0.1342995
   9 c     dx -0.0000868-0.0000303 0.0000679-0.0000215 0.0000281-0.0001076
           dy  0.0001087 0.0000813 0.0001432 0.0001475 0.0000644 0.0000411
           dz -0.0000662 0.0001468 0.0000323 0.0000657-0.0001717-0.0001038
  10 c     dx -0.0000010-0.0001014-0.0000753-0.0001431 0.0000635 0.0000656
           dy -0.0001294 0.0000536-0.0000610-0.0001693 0.0000483-0.0000564
           dz  0.0000576 0.0001241-0.0000970-0.0000591-0.0001109-0.0000393
  11 h     dx -0.0000102-0.0000238-0.0000329-0.0000045-0.0000278-0.0000004
           dy -0.0000233 0.0001651 0.0001664 0.0000600 0.0000078-0.0000708
           dz  0.0000327-0.0001362-0.0001550-0.0000472 0.0000771-0.0000487
  12 h     dx -0.0000557-0.0000920-0.0000707-0.0000157 0.0000014-0.0000653
           dy -0.0000319-0.0002078-0.0002481-0.0000851 0.0000750-0.0001539
           dz  0.0000054-0.0002099-0.0002136-0.0000556 0.0001595-0.0000923
  13 h     dx -0.0000856 0.0002567 0.0002172 0.0001422 0.0000176-0.0001997
           dy  0.0000967-0.0001125-0.0000161 0.0001275-0.0000807 0.0000785
           dz  0.0001172 0.0002104 0.0001268-0.0000375-0.0001722 0.0003848
  14 h     dx -0.0000013 0.0000229 0.0000053-0.0000017 0.0000036-0.0000273
           dy -0.0000552 0.0000013 0.0000633-0.0000011 0.0001691-0.0001619
           dz -0.0000329-0.0000876-0.0000425 0.0000016 0.0001434-0.0001367
  15 h     dx -0.0000208-0.0000160-0.0000713-0.0000687 0.0001067-0.0000898
           dy  0.0000761 0.0000801 0.0001483 0.0000600-0.0001886 0.0002242
           dz -0.0000299-0.0001613-0.0000830-0.0000235 0.0001942-0.0001850
  16 h     dx  0.0002021 0.0000430-0.0002041-0.0000335-0.0002607 0.0002259
           dy -0.0000944-0.0000162-0.0001365-0.0000982-0.0001465 0.0000220
           dz -0.0000923 0.0001408 0.0004178 0.0001461-0.0001857 0.0001230

   ATOM              3 h                           4 h 
                  dx        dy        dz        dx        dy        dz
   3 h     dx  0.0532386
           dy -0.0222793 0.2328009
           dz -0.0137746 0.1353467 0.1485917
   4 h     dx -0.0024728 0.0002421 0.0014233 0.2682155
           dy  0.0242416 0.0022293-0.0128392 0.0154952 0.0481661
           dz  0.0162927 0.0023001-0.0098833-0.1178843-0.0083113 0.1161352
   5 h     dx -0.0010421 0.0031707-0.0021387 0.0008217-0.0246574 0.0160743
           dy -0.0004332-0.0214744 0.0155976-0.0004355-0.0013278 0.0000592
           dz -0.0000451-0.0161673 0.0123918-0.0003057 0.0131026-0.0097206
   6 h     dx  0.0010651-0.0004284 0.0008369 0.0010107 0.0003891 0.0009380
           dy  0.0004625 0.0006779 0.0002455 0.0006100 0.0001577 0.0001164
           dz  0.0008453-0.0001263 0.0003397 0.0001621-0.0004160 0.0011828
   7 h     dx  0.0011211-0.0004859 0.0001024-0.0027581-0.0001861-0.0046323
           dy -0.0002877 0.0000472 0.0004193-0.0002596 0.0009279-0.0002749
           dz  0.0009328-0.0000046 0.0011817-0.0046316-0.0002969-0.0027559
   8 h     dx -0.0040500-0.0001580-0.0041687 0.0010637-0.0002782 0.0009442
           dy -0.0001417 0.0015533 0.0004173-0.0005040 0.0000000-0.0000055
           dz -0.0042260 0.0004565-0.0021213 0.0000833 0.0004117 0.0011400
   9 c     dx  0.0003453 0.0000082 0.0002008-0.0000897 0.0001401 0.0000663
           dy  0.0002050-0.0001274-0.0000263-0.0001647 0.0000706 0.0000137
           dz  0.0000363 0.0001470 0.0001450 0.0000449-0.0000765-0.0000155
  10 c     dx  0.0001324 0.0000189-0.0001993-0.0002277 0.0002227 0.0000788
           dy -0.0001871-0.0001282 0.0002388 0.0002130-0.0001831-0.0000949
           dz -0.0001384 0.0001235-0.0000848 0.0000271-0.0000534-0.0000736
  11 h     dx -0.0001258 0.0000059 0.0000074 0.0000634-0.0000650-0.0000239
           dy -0.0001381-0.0000223-0.0002164 0.0000350-0.0000625-0.0000501
           dz  0.0000239 0.0000077 0.0000265-0.0000557 0.0000703 0.0000383
  12 h     dx  0.0000584 0.0000512-0.0000147-0.0000001 0.0000416 0.0000506
           dy  0.0000350-0.0000288 0.0000916 0.0000024 0.0000536 0.0000593
           dz -0.0000291-0.0000022 0.0000863-0.0000169 0.0000464 0.0000231
  13 h     dx -0.0003733 0.0000916-0.0003131 0.0000899-0.0001312-0.0001097
           dy  0.0000362-0.0000836-0.0000266 0.0000210-0.0000399-0.0000270
           dz -0.0001632-0.0000331-0.0000407-0.0000076-0.0000570-0.0000634
  14 h     dx -0.0000633 0.0000018 0.0000413 0.0000715-0.0000620-0.0000194
           dy -0.0000008 0.0000160-0.0001489-0.0000460 0.0000631-0.0000127
           dz  0.0000642 0.0000070 0.0000435-0.0000178 0.0000288 0.0000123
  15 h     dx -0.0000636 0.0000237 0.0001141 0.0000345-0.0000605-0.0000536
           dy  0.0000532-0.0000327-0.0001342-0.0000554 0.0000499 0.0000391
           dz  0.0000115 0.0000167 0.0000770 0.0000127 0.0000078 0.0000068
  16 h     dx -0.0000562 0.0000140 0.0002857 0.0000805-0.0000774 0.0000063
           dy  0.0000203-0.0000911 0.0001624 0.0000030-0.0000334 0.0000518
           dz  0.0001768 0.0000393-0.0003882 0.0000057 0.0000497 0.0000744

   ATOM              5 h                           6 h 
                  dx        dy        dz        dx        dy        dz
   5 h     dx  0.0501868
           dy -0.0022963 0.2382068
           dz  0.0044504-0.1344773 0.1443175
   6 h     dx -0.0040064-0.0005474-0.0041340 0.0503389
           dy -0.0005292 0.0015116-0.0009674-0.0012039 0.2370651
           dz -0.0040850-0.0009248-0.0021294 0.0035388-0.1354222 0.1467921
   7 h     dx  0.0009500 0.0006254 0.0001424 0.0007056-0.0004423-0.0002366
           dy  0.0003920 0.0001168-0.0004079-0.0245287-0.0010176 0.0129831
           dz  0.0009400 0.0001196 0.0011401 0.0162824-0.0001467-0.0098114
   8 h     dx  0.0011249 0.0004367 0.0008710-0.0010279-0.0005385-0.0001318
           dy -0.0004053 0.0008335-0.0001808 0.0030640-0.0214915-0.0159479
           dz  0.0008407 0.0002927 0.0003370-0.0020844 0.0158205 0.0123870
   9 c     dx -0.0000459 0.0000680-0.0000012 0.0000966 0.0000250-0.0002010
           dy -0.0000853-0.0000052-0.0000255 0.0002175-0.0001108-0.0002668
           dz  0.0000349 0.0000520-0.0000082-0.0001312-0.0001258-0.0000884
  10 c     dx -0.0001446-0.0001649 0.0000394 0.0004160 0.0000791 0.0002216
           dy  0.0001277 0.0001662-0.0000160-0.0001691-0.0001412-0.0000091
           dz -0.0000043-0.0000077-0.0000156 0.0000742-0.0001468 0.0001713
  11 h     dx  0.0000323 0.0000262-0.0000041-0.0000646-0.0000105 0.0000347
           dy  0.0000257-0.0001082-0.0000299-0.0000103 0.0000123 0.0001586
           dz -0.0000208 0.0000242 0.0000432 0.0000609 0.0000018 0.0000488
  12 h     dx  0.0000109-0.0000111 0.0000200-0.0000590-0.0000268 0.0001001
           dy  0.0000238 0.0000766 0.0000671-0.0000546-0.0000452 0.0001366
           dz  0.0000116 0.0000530 0.0000693 0.0000142-0.0000192 0.0000801
  13 h     dx  0.0000600-0.0001580-0.0000432-0.0000110-0.0000248 0.0003212
           dy -0.0000005 0.0000124-0.0000034-0.0000213-0.0000879-0.0001158
           dz -0.0000602-0.0000118-0.0000664 0.0001500-0.0000328-0.0003716
  14 h     dx  0.0000383 0.0000328 0.0000033-0.0001333-0.0000212-0.0000120
           dy -0.0000139-0.0001052 0.0000205 0.0001336-0.0000022 0.0002113
           dz  0.0000175 0.0000159 0.0000342 0.0000347-0.0000083 0.0000242
  15 h     dx  0.0000428 0.0000549 0.0000292 0.0000612-0.0000409-0.0000101
           dy -0.0000707-0.0000643-0.0000692-0.0000202-0.0000261-0.0000793
           dz  0.0000450 0.0000298 0.0000575-0.0000253 0.0000014 0.0000641
  16 h     dx  0.0000106 0.0002035-0.0000102-0.0003715-0.0001595-0.0003165
           dy -0.0000077 0.0000069 0.0000183-0.0000434-0.0001043 0.0000093
           dz -0.0000354-0.0001477-0.0001269-0.0001447 0.0000364-0.0000205

   ATOM              7 h                           8 h 
                  dx        dy        dz        dx        dy        dz
   7 h     dx  0.2684492
           dy  0.0135269 0.0478787
           dz -0.1179734-0.0072094 0.1161523
   8 h     dx -0.0023734 0.0244161 0.0160966 0.0527026
           dy  0.0002916 0.0019445 0.0020607-0.0213743 0.2340872
           dz  0.0013626-0.0129722-0.0097928-0.0127717 0.1345178 0.1460101
   9 c     dx -0.0001703-0.0002231 0.0000718-0.0001377 0.0001483 0.0000301
           dy -0.0001980-0.0002163 0.0000941-0.0001497 0.0001616 0.0000115
           dz  0.0000049 0.0000500-0.0000608-0.0000165 0.0000151-0.0000086
  10 c     dx -0.0000858-0.0001663 0.0000762-0.0000429-0.0000802 0.0000067
           dy  0.0001492 0.0000804-0.0000023 0.0000697 0.0000058 0.0000278
           dz  0.0000410 0.0000722-0.0000109 0.0000403-0.0000569-0.0000019
  11 h     dx  0.0000591 0.0000663-0.0000212 0.0000426-0.0000208 0.0000093
           dy  0.0000409 0.0000750 0.0000094 0.0000308-0.0001073-0.0000182
           dz -0.0000115-0.0000286 0.0000135 0.0000237-0.0000155 0.0000372
  12 h     dx  0.0000167 0.0000545-0.0000466 0.0000413-0.0000424 0.0000273
           dy  0.0000454 0.0000550-0.0000412 0.0000781-0.0000559 0.0000739
           dz  0.0000163-0.0000055 0.0000052 0.0000545-0.0000228 0.0000629
  13 h     dx  0.0000673 0.0000955 0.0000185 0.0000350-0.0002093 0.0000041
           dy  0.0000048-0.0000203-0.0000465 0.0000092-0.0000112-0.0000190
           dz  0.0000266-0.0000284 0.0000575-0.0000350 0.0001361-0.0001309
  14 h     dx  0.0000554 0.0000793-0.0000304 0.0000359-0.0000100-0.0000092
           dy -0.0000197-0.0000605 0.0000479-0.0000068-0.0001098 0.0000280
           dz -0.0000456-0.0000770 0.0000396-0.0000203-0.0000240 0.0000395
  15 h     dx  0.0000098-0.0000413 0.0000517 0.0000118 0.0000086 0.0000230
           dy -0.0000107 0.0000468-0.0000522-0.0000310 0.0000654-0.0000625
           dz -0.0000096-0.0000448 0.0000196 0.0000171-0.0000380 0.0000618
  16 h     dx  0.0000728 0.0001485-0.0001112 0.0000351 0.0001644-0.0000480
           dy -0.0000081-0.0000293 0.0000172 0.0000032 0.0000276-0.0000027
           dz -0.0000226 0.0000495-0.0000650-0.0000626-0.0000043-0.0000641

   ATOM              9 c                          10 c 
                  dx        dy        dz        dx        dy        dz
   9 c     dx  0.5220828
           dy -0.0022121 0.5618619
           dz  0.0476283 0.0031285 0.5041773
  10 c     dx -0.1255107-0.0030049 0.0566744 0.5221479
           dy -0.0031379-0.0785475 0.0036412-0.0027497 0.5618823
           dz  0.0566761 0.0036631-0.1463736 0.0476617 0.0029478 0.5041803
  11 h     dx -0.1442180 0.1244658-0.0036235-0.0140027 0.0170594-0.0002869
           dy  0.1251487-0.2090917 0.0031500-0.0023548 0.0023729-0.0000555
           dz -0.0042266 0.0039211-0.0471444 0.0172724-0.0221139-0.0001221
  12 h     dx -0.1114761-0.0002576-0.1128513 0.0117021 0.0000822 0.0214571
           dy -0.0002708-0.0484603-0.0005236 0.0007699-0.0005982 0.0012868
           dz -0.1116676-0.0004786-0.2404175-0.0126519-0.0001228-0.0228808
  13 h     dx -0.1258064-0.1179672-0.0079610-0.0126275-0.0181083-0.0010419
           dy -0.1188807-0.2275561-0.0105618 0.0002520 0.0000399 0.0001941
           dz -0.0086716-0.0114722-0.0479125 0.0154779 0.0234548 0.0007914
  14 h     dx -0.0126192-0.0182693-0.0009132-0.1235758-0.1169986-0.0073126
           dy  0.0005373 0.0001793 0.0000391-0.1176564-0.2292661-0.0096906
           dz  0.0153698 0.0235270 0.0006858-0.0078704-0.0105100-0.0476773
  15 h     dx  0.0116960 0.0002261 0.0214610-0.1114058-0.0011557-0.1127978
           dy  0.0007361-0.0005985 0.0013226-0.0011715-0.0484853-0.0023261
           dz -0.0126474-0.0001788-0.0228733-0.1116086-0.0022648-0.2404980
  16 h     dx -0.0140383 0.0169382-0.0003877-0.1466308 0.1251040-0.0043940
           dy -0.0020851 0.0022948-0.0002326 0.1260440-0.2072997 0.0040364
           dz  0.0174119-0.0220950-0.0000339-0.0051694 0.0049409-0.0472681

   ATOM             11 h                          12 h 
                  dx        dy        dz        dx        dy        dz
  11 h     dx  0.1568901
           dy -0.1383609 0.2254826
           dz  0.0003848-0.0041086 0.0503389
  12 h     dx -0.0105573-0.0011495-0.0170055 0.1202399
           dy  0.0130341 0.0004014 0.0237256 0.0004010 0.0471265
           dz -0.0001577 0.0004852-0.0000668 0.1207510 0.0003015 0.2652037
  13 h     dx  0.0123674 0.0172502 0.0012846-0.0096008-0.0137863-0.0006583
           dy -0.0146097-0.0214893-0.0018977 0.0010448 0.0005288-0.0004610
           dz  0.0005179 0.0011430-0.0009919-0.0150998-0.0248983-0.0010480
  14 h     dx  0.0003106 0.0002224-0.0008592 0.0011036 0.0004626-0.0001294
           dy -0.0002382 0.0008334 0.0003838 0.0000084 0.0000575 0.0005466
           dz -0.0008288-0.0004656 0.0011545-0.0009576 0.0002750 0.0010431
  15 h     dx  0.0011350 0.0001149-0.0009303-0.0025874-0.0002441 0.0046293
           dy -0.0003709 0.0000573-0.0003877-0.0002203 0.0009280 0.0003034
           dz -0.0000981-0.0005908 0.0010118 0.0046315 0.0002300-0.0029253
  16 h     dx -0.0019174-0.0008916 0.0040740 0.0011793-0.0003795-0.0001159
           dy -0.0009303 0.0014735 0.0004764 0.0001147 0.0000940-0.0005736
           dz  0.0041234 0.0004935-0.0041837-0.0009262-0.0003824 0.0010706

   ATOM             13 h                          14 h 
                  dx        dy        dz        dx        dy        dz
  13 h     dx  0.1363341
           dy  0.1315820 0.2465016
           dz  0.0053639 0.0118908 0.0512676
  14 h     dx -0.0020357 0.0004867 0.0041677 0.1339613
           dy  0.0004432 0.0016044 0.0000639 0.1304752 0.2478891
           dz  0.0041115 0.0000795-0.0041910 0.0044715 0.0108960 0.0509012
  15 h     dx  0.0011433 0.0000110-0.0009498-0.0094907 0.0008320-0.0148902
           dy  0.0004701 0.0001039 0.0002812-0.0139000 0.0002148-0.0250560
           dz -0.0001466 0.0005292 0.0011029-0.0005910-0.0004887-0.0009423
  16 h     dx  0.0003012-0.0001597-0.0007965 0.0123444-0.0143917 0.0005927
           dy  0.0001781 0.0006905-0.0004742 0.0174737-0.0214842 0.0012557
           dz -0.0008475 0.0004028 0.0010853 0.0012148-0.0017977-0.0009881

   ATOM             15 h                          16 h 
                  dx        dy        dz        dx        dy        dz
  15 h     dx  0.1201406
           dy  0.0015772 0.0471597
           dz  0.1206838 0.0022856 0.2652855
  16 h     dx -0.0106379 0.0128778-0.0002216 0.1594596
           dy -0.0013967 0.0006896 0.0004727-0.1391732 0.2239279
           dz -0.0171991 0.0235629-0.0001802 0.0014212-0.0051028 0.0505475
 

   *** projected hessian written onto $hessian (projected), file=<hessian> ***

 dipole moment in principle axis system (a.u.) :
    -0.0000885352     0.0004763844     0.0001926954
 norm :  5.214519383381282E-004

 rotational constants b for rotations around axis of inertia
 and optical intensities for (1 <-- 0) transition

   b   :     0.0640338990     0.3334607225     0.0641866888   (cm**(-1))
   b   :        1919.6880        9996.9010        1924.2685     (MHz)
  int. :     0.0000000078     0.0000002269     0.0000000371     (a.u.)

   x   :     0.9952201978    -0.0533942072     0.0817668430
   y   :     0.0532588488     0.9985733680     0.0038371466
   z   :    -0.0818550732     0.0005360022     0.9966440988

   ***  normal modes written onto $vibrational normal modes, file=<vib_normal_modes>  ***

 keyword $vibrational reduced masses missing in file <control>


   ***  vibrational spectroscopic data written onto$vibrational spectrum   
        file=<vibspectrum>  ***

          ---------------------------------------------------
          NORMAL MODES and VIBRATIONAL FREQUENCIES (cm**(-1))
          ---------------------------------------------------

 imaginary wave numbers indicate a negative curvature of the energy surface.
 zero frequency modes have no physical meaning except being generators of
 translations and rotations. each vibrational normal mode - given in terms of
 cartesian displacement vectors of all atoms - has been normalized to unity.
 to obtain mass-weigthed normal coordinates in a.u. divide the tabulated
 modes by sqrt(reduced mass * 1822.88853).
 band intensities or cross sections refer to independent non-degenerate normal
 modes, that is, the intensities of degenerate modes have yet to be added.
 dDIP/dQ is the normal mode derivative of the dipole moment.


       mode               1        2        3        4        5        6

     frequency           0.00     0.00     0.00     0.00     0.00     0.00

     symmetry                                                             

        IR                -        -        -        -        -        - 
|dDIP/dQ|   (a.u.)     0.0000   0.0000   0.0000   0.0000   0.0000   0.0000
intensity (km/mol)       0.00     0.00     0.00     0.00     0.00     0.00
intensity (  %   )       0.00     0.00     0.00     0.00     0.00     0.00
 
       RAMAN              -        -        -        -        -        - 
 
  1   c           x  -0.00105 -0.05860  0.19117 -0.19666  0.18501  0.08183
                  y   0.11870 -0.01378  0.18758 -0.00371 -0.12785  0.01964
                  z   0.26003  0.05278  0.00343  0.10261  0.11947 -0.16015
  2   c           x  -0.04550  0.06797  0.24973 -0.11192  0.18590 -0.08195
                  y   0.06153  0.00490  0.08022 -0.06844 -0.22361 -0.01972
                  z   0.31545 -0.09483 -0.05664  0.00926  0.12522  0.03192
  3   h           x   0.04383 -0.10365  0.08157 -0.26678  0.14346  0.18849
                  y   0.17217  0.01221  0.18468  0.02327 -0.10723  0.04523
                  z   0.19456  0.01154 -0.00813  0.05651  0.08592 -0.17947
  4   h           x  -0.02187  0.01107  0.21227 -0.15502  0.18033 -0.00226
                  y   0.05942 -0.07455  0.26681 -0.00891 -0.09998 -0.00046
                  z   0.21309  0.17572  0.05352  0.18017  0.11435 -0.32082
  5   h           x   0.00943 -0.18168  0.23425 -0.23403  0.23060  0.18658
                  y   0.16893  0.00648  0.19473  0.02485 -0.10188  0.04476
                  z   0.32944  0.08591  0.01164  0.14381  0.15372 -0.12947
  6   h           x  -0.05638  0.19172  0.20747 -0.07387  0.14055 -0.18785
                  y   0.01064 -0.01582  0.07346 -0.09721 -0.24959 -0.04511
                  z   0.24624 -0.12711 -0.06454 -0.03128  0.09115  0.00060
  7   h           x  -0.02451 -0.00132  0.22788 -0.15371  0.19016  0.00215
                  y   0.12082  0.06570  0.00095 -0.06325 -0.25150  0.00039
                  z   0.36173 -0.21813 -0.10682 -0.06872  0.13001  0.19234
  8   h           x  -0.09020  0.11187  0.35948 -0.04226  0.22776 -0.18749
                  y   0.00868 -0.02064  0.08278 -0.09520 -0.24420 -0.04504
                  z   0.38159 -0.05399 -0.04528  0.05524  0.15900  0.05223
  9   c           x   0.07689  0.10399 -0.14610 -0.27352 -0.00546  0.09622
                  y   0.15037  0.04702  0.07791 -0.02281 -0.18767  0.02307
                  z   0.00904 -0.24258 -0.09344 -0.17372 -0.02618 -0.10206
 10   c           x   0.02750  0.25918 -0.08990 -0.17664 -0.01161 -0.09609
                  y   0.03838 -0.03653  0.15326 -0.05679 -0.18463 -0.02299
                  z  -0.03809 -0.11765 -0.04258 -0.09476 -0.03115 -0.26483
 11   h           x   0.09319  0.14334 -0.21989 -0.28859 -0.04792  0.09543
                  y   0.16307  0.07755  0.01929 -0.03523 -0.22144  0.02285
                  z  -0.02982 -0.35953 -0.13570 -0.26816 -0.05758 -0.02450
 12   h           x   0.11821 -0.02030 -0.19647 -0.35352 -0.00303  0.25315
                  y   0.21624  0.05520  0.13099  0.02883 -0.12446  0.06075
                  z  -0.01390 -0.17385 -0.06565 -0.12954 -0.02761 -0.18891
 13   h           x   0.05772  0.06829 -0.06576 -0.25381  0.03928  0.08963
                  y   0.15889  0.07326  0.02489 -0.03559 -0.21946  0.02144
                  z   0.10738 -0.29151 -0.11851 -0.18488  0.01045  0.03370
 14   h           x   0.04656  0.29574 -0.17045 -0.19604 -0.05663 -0.09030
                  y   0.02962 -0.06261  0.20561 -0.04435 -0.15339 -0.02155
                  z  -0.13654 -0.06984 -0.01793 -0.08444 -0.06796 -0.39961
 15   h           x  -0.01399  0.38309 -0.03876 -0.09647 -0.01360 -0.25306
                  y  -0.02751 -0.04473  0.10021 -0.10843 -0.24783 -0.06068
                  z  -0.01447 -0.18603 -0.07028 -0.13851 -0.02938 -0.17770
 16   h           x   0.01153  0.21942 -0.01689 -0.16210  0.03057 -0.09446
                  y   0.02597 -0.06720  0.21251 -0.04402 -0.15033 -0.02257
                  z   0.00000  0.00000  0.00000  0.00000  0.00000 -0.34375

reduced mass(g/mol)     3.422    2.925    3.355    3.378    3.607    2.559


       mode               7        8        9       10       11       12

     frequency          21.65    31.30    37.07    45.83    74.98    82.90

     symmetry            a        a        a        a        a        a   

        IR               YES      YES      YES      YES      YES      YES
|dDIP/dQ|   (a.u.)     0.0000   0.0000   0.0001   0.0000   0.0000   0.0000
intensity (km/mol)       0.00     0.00     0.02     0.00     0.00     0.00
intensity (  %   )       0.00     0.00     0.01     0.00     0.00     0.00
 
       RAMAN             YES      YES      YES      YES      YES      YES
 
  1   c           x   0.00449 -0.02363  0.09618  0.02368 -0.04376 -0.03463
                  y   0.09480  0.04701 -0.00309 -0.24697  0.02498  0.13571
                  z  -0.04538  0.03283 -0.09722 -0.01215  0.01951 -0.03927
  2   c           x  -0.03938  0.00234 -0.08513 -0.00177 -0.04604 -0.01133
                  y  -0.08594 -0.04680  0.03433 -0.24902 -0.01728 -0.14358
                  z   0.01830  0.00952  0.10982  0.01720  0.02519 -0.04632
  3   h           x  -0.21509 -0.06826  0.31621  0.03415 -0.14051 -0.01615
                  y  -0.04095  0.07989  0.07728 -0.24893 -0.04864  0.34849
                  z   0.10598 -0.01807 -0.17408 -0.00695  0.10426 -0.32374
  4   h           x  -0.04912 -0.01352  0.01609  0.00987 -0.05829 -0.01864
                  y   0.46940  0.05016 -0.17834 -0.23725  0.19187 -0.07001
                  z  -0.09688  0.05216 -0.27070 -0.03680  0.01429 -0.03623
  5   h           x   0.31306 -0.00951  0.09515  0.04652  0.07118 -0.08677
                  y  -0.00382  0.08309  0.06208 -0.24931 -0.03429  0.34227
                  z  -0.19492  0.08243 -0.00657 -0.01635 -0.06760  0.25012
  6   h           x  -0.34525 -0.01298 -0.07829 -0.03180 -0.15987  0.04111
                  y   0.01384 -0.08285 -0.03813 -0.23732  0.04358 -0.35122
                  z   0.16437 -0.03963  0.01028  0.03311  0.11155 -0.33332
  7   h           x   0.01177 -0.00762 -0.00460  0.01266 -0.03390 -0.02735
                  y  -0.45913 -0.05092  0.22285 -0.27110 -0.18692  0.06322
                  z   0.07145 -0.00974  0.28283  0.04176  0.02867 -0.05257
  8   h           x   0.18213  0.04694 -0.31319 -0.00603  0.05522 -0.03029
                  y   0.04643 -0.07908 -0.05222 -0.23684  0.05751 -0.35728
                  z  -0.13259  0.05962  0.19722  0.00000 -0.06335  0.24309
  9   c           x  -0.01822  0.02737 -0.10831 -0.02535  0.04985  0.02698
                  y   0.05165 -0.08629 -0.05501  0.23717 -0.13738  0.01384
                  z  -0.01314 -0.01193 -0.09409 -0.01503 -0.02509  0.04644
 10   c           x   0.05299 -0.00611  0.09737  0.00344  0.03987  0.01937
                  y  -0.06039  0.08605  0.02374  0.25872  0.12961 -0.00587
                  z   0.04019 -0.03057  0.08141  0.01000 -0.01912  0.03904
 11   h           x   0.06368  0.19719 -0.11022 -0.03908 -0.21863 -0.04289
                  y   0.11619  0.04969 -0.05687  0.22624 -0.34999 -0.04180
                  z  -0.06407  0.28220 -0.15821 -0.02670 -0.05955 -0.02472
 12   h           x  -0.07096  0.06487 -0.27641 -0.04962  0.04181  0.02783
                  y   0.01584 -0.48912 -0.11414  0.23898  0.06082  0.13755
                  z   0.01605 -0.03210 -0.00096 -0.00163 -0.02096  0.04588
 13   h           x  -0.10238 -0.15360 -0.09750 -0.00938  0.33279  0.09930
                  y   0.10895  0.04722 -0.05469  0.22673 -0.32828 -0.03859
                  z  -0.03206 -0.26996 -0.25859 -0.03590  0.00058  0.12255
 14   h           x   0.14081  0.17420  0.09394 -0.00083 -0.24570 -0.05430
                  y  -0.11939 -0.04347  0.01940  0.26048  0.31964  0.04594
                  z   0.06177  0.22916  0.25056  0.03753 -0.04461 -0.03934
 15   h           x   0.10526 -0.04531  0.26476  0.02738  0.05119  0.01693
                  y  -0.02063  0.48657  0.09232  0.26936 -0.06766 -0.12924
                  z   0.01085 -0.01304 -0.01181 -0.00331 -0.02336  0.04176
 16   h           x  -0.03244 -0.17201  0.09276  0.00612  0.30571  0.08673
                  y  -0.12818 -0.05088  0.02080  0.26027  0.34310  0.04945
                  z   0.09031 -0.32117  0.14105  0.01504  0.01420  0.10789

reduced mass(g/mol)     1.355    1.259    1.883    3.739    1.522    1.548


       mode              13       14       15       16       17       18

     frequency         309.20   311.45   816.71   818.47   818.85   820.96

     symmetry            a        a        a        a        a        a   

        IR               YES      YES      YES      YES      YES      YES
|dDIP/dQ|   (a.u.)     0.0000   0.0001   0.0024   0.0012   0.0014   0.0004
intensity (km/mol)       0.00     0.02    10.15     2.73     3.58     0.30
intensity (  %   )       0.00     0.01     6.90     1.86     2.43     0.20
 
       RAMAN             YES      YES      YES      YES      YES      YES
 
  1   c           x   0.00011 -0.00101  0.00616  0.01672  0.02410 -0.00748
                  y  -0.00180 -0.00060  0.02800  0.01135 -0.00616  0.03548
                  z   0.00007  0.00175 -0.00825 -0.01982 -0.02799  0.00642
  2   c           x  -0.00015  0.00090  0.00509  0.01676  0.02458 -0.00718
                  y  -0.00202 -0.00027  0.02802  0.01117 -0.00687  0.03578
                  z  -0.00005 -0.00150 -0.00861 -0.02009 -0.02803  0.00568
  3   h           x  -0.13709 -0.17034  0.11143 -0.11303 -0.30654  0.30100
                  y  -0.13904 -0.17314 -0.10138 -0.06056 -0.01184 -0.10894
                  z   0.16504  0.20966  0.17730  0.05902 -0.06191  0.23665
  4   h           x  -0.01729 -0.02102  0.07676  0.16194  0.21567 -0.03536
                  y   0.25537  0.31882 -0.12503 -0.03658  0.05137 -0.17051
                  z   0.00121  0.00613  0.10757  0.25374  0.34906 -0.07521
  5   h           x   0.15517  0.18943 -0.25476 -0.24849 -0.20038 -0.17815
                  y  -0.11836 -0.14694 -0.10793 -0.03910  0.03807 -0.14991
                  z  -0.16828 -0.20954 -0.18069 -0.07464  0.04505 -0.23858
  6   h           x   0.15209  0.19009 -0.25430 -0.24979 -0.20229 -0.17685
                  y  -0.11868 -0.14761 -0.11008 -0.03701  0.03883 -0.14750
                  z  -0.16437 -0.20906 -0.18372 -0.07338  0.04428 -0.23385
  7   h           x  -0.01557 -0.01988  0.07371  0.16155  0.21673 -0.03671
                  y   0.25257  0.31731 -0.12446 -0.03826  0.05088 -0.17013
                  z   0.00022 -0.00400  0.10554  0.25339  0.34956 -0.07538
  8   h           x  -0.13707 -0.16819  0.11273 -0.11187 -0.30575  0.30235
                  y  -0.13714 -0.16972 -0.09890 -0.05916 -0.01262 -0.11174
                  z   0.16604  0.20727  0.17573  0.05946 -0.05961  0.24160
  9   c           x  -0.00029  0.00163 -0.01037  0.02921 -0.01859 -0.00458
                  y   0.00176  0.00028  0.03459 -0.00309 -0.01454 -0.02826
                  z  -0.00004  0.00081 -0.00763  0.02387 -0.01621 -0.00537
 10   c           x   0.00032 -0.00156 -0.01081  0.02922 -0.01849 -0.00411
                  y   0.00187  0.00066  0.03471 -0.00254 -0.01473 -0.02857
                  z   0.00003 -0.00105 -0.00669  0.02415 -0.01651 -0.00460
 11   h           x   0.20470 -0.16414 -0.21864  0.02784  0.08342  0.18063
                  y   0.16493 -0.13158 -0.13405 -0.00230  0.06662  0.12100
                  z   0.18053 -0.14191  0.31685 -0.28354  0.07827 -0.14249
 12   h           x   0.01207 -0.00588  0.12047 -0.35439  0.23386  0.06113
                  y  -0.31648  0.25498 -0.15707 -0.00234  0.07960  0.13574
                  z  -0.00646  0.00458 -0.07789  0.23077 -0.15251 -0.04087
 13   h           x  -0.21644  0.17693  0.22759 -0.02008 -0.09531 -0.18607
                  y   0.15516 -0.12400 -0.12240  0.03939  0.02766  0.08727
                  z  -0.17362  0.13896 -0.15484 -0.23443  0.26965  0.24202
 14   h           x  -0.21928  0.17463  0.22557 -0.02305 -0.09583 -0.19042
                  y   0.15410 -0.12132 -0.11938  0.03985  0.02884  0.08934
                  z  -0.17585  0.13762 -0.15632 -0.23294  0.26919  0.24313
 15   h           x   0.01530 -0.01570  0.11829 -0.35453  0.23434  0.06101
                  y  -0.31789  0.25520 -0.15713 -0.00215  0.07794  0.13544
                  z  -0.00489  0.00412 -0.07449  0.23087 -0.15364 -0.04142
 16   h           x   0.20368 -0.16543 -0.22040  0.02868  0.08385  0.17571
                  y   0.16767 -0.13286 -0.13540 -0.00295  0.06881  0.11800
                  z   0.18027 -0.14397  0.31655 -0.28493  0.08002 -0.14100

reduced mass(g/mol)     1.008    1.008    1.058    1.057    1.057    1.057


       mode              19       20       21       22       23       24

     frequency         998.81   999.08  1224.85  1225.26  1225.49  1226.31

     symmetry            a        a        a        a        a        a   

        IR               YES      YES      YES      YES      YES      YES
|dDIP/dQ|   (a.u.)     0.0003   0.0000   0.0001   0.0002   0.0002   0.0000
intensity (km/mol)       0.12     0.00     0.01     0.05     0.06     0.00
intensity (  %   )       0.08     0.00     0.01     0.03     0.04     0.00
 
       RAMAN             YES      YES      YES      YES      YES      YES
 
  1   c           x   0.17131 -0.17934  0.05453 -0.03687 -0.00278  0.06765
                  y   0.01018 -0.01118  0.01887  0.00508  0.14190 -0.01686
                  z   0.14727 -0.15589 -0.06326  0.04203 -0.00626 -0.07880
  2   c           x  -0.17127  0.17938 -0.05442  0.03718  0.00296 -0.06768
                  y  -0.01074  0.01080 -0.01865 -0.00513 -0.14190  0.01659
                  z  -0.14718  0.15588  0.06324 -0.04210  0.00721  0.07859
  3   h           x   0.18828 -0.20250 -0.15675  0.13829  0.24904 -0.26688
                  y   0.00671 -0.00811 -0.07251  0.03651 -0.09861 -0.06338
                  z   0.15913 -0.16705  0.03321  0.02094  0.33904 -0.05529
  4   h           x   0.18460 -0.19312  0.19821 -0.12962  0.03940  0.23878
                  y   0.01034 -0.01103 -0.01391 -0.02119 -0.25266  0.05557
                  z   0.16763 -0.17601  0.21534 -0.14336  0.02244  0.26717
  5   h           x   0.19025 -0.19973 -0.22167  0.11189 -0.28018 -0.19458
                  y   0.02079 -0.01602  0.02351 -0.03100 -0.12008  0.06556
                  z   0.16529 -0.16630 -0.03912 -0.01657 -0.34464  0.05009
  6   h           x  -0.18762  0.20193  0.22059 -0.11275  0.27824  0.19663
                  y  -0.01647  0.01680 -0.02531  0.03231  0.11907 -0.06616
                  z  -0.15936  0.16722  0.03945  0.01672  0.34106 -0.04701
  7   h           x  -0.18504  0.19309 -0.19806  0.12926 -0.03730 -0.23918
                  y  -0.01206  0.01288  0.01446  0.02002  0.25322 -0.05106
                  z  -0.16859  0.17611 -0.21521  0.14275 -0.02443 -0.26630
  8   h           x  -0.19085  0.20013  0.15683 -0.13956 -0.25083  0.26546
                  y  -0.00249  0.00857  0.07048 -0.03574  0.09897  0.06230
                  z  -0.16512  0.16623 -0.03336 -0.02010 -0.34261  0.05331
  9   c           x   0.15114  0.14561  0.07399 -0.02949 -0.01766 -0.07573
                  y   0.00944  0.00946 -0.06826 -0.12595  0.01191 -0.01377
                  z  -0.18241 -0.17383  0.05888 -0.03146 -0.01414 -0.06233
 10   c           x  -0.15109 -0.14561 -0.07410  0.02908  0.01758  0.07569
                  y  -0.00992 -0.00907  0.06808  0.12599 -0.01190  0.01354
                  z   0.18238  0.17384 -0.05894  0.03150  0.01376  0.06247
 11   h           x   0.16834  0.15487  0.16609  0.29297 -0.02919  0.02715
                  y   0.01978  0.01347  0.01182  0.13601  0.00135  0.06574
                  z  -0.20241 -0.19369 -0.34469 -0.13525  0.07572  0.19781
 12   h           x   0.17241  0.16448 -0.23917  0.10532  0.05681  0.24956
                  y   0.00969  0.00942  0.11137  0.23161 -0.01718  0.03743
                  z  -0.19678 -0.18721  0.22441 -0.10290 -0.05318 -0.23482
 13   h           x   0.16377  0.15603 -0.17098 -0.29885  0.03083 -0.02528
                  y   0.00533  0.00598  0.10381  0.04940 -0.02216 -0.05647
                  z  -0.20068 -0.19599 -0.07410  0.34127  0.02470  0.24222
 14   h           x  -0.16918 -0.15525  0.17179  0.29977 -0.03087  0.02260
                  y  -0.00172 -0.00651 -0.10101 -0.04922  0.02166  0.05585
                  z   0.20262  0.19370  0.07436 -0.34278 -0.02352 -0.24076
 15   h           x  -0.17279 -0.16456  0.23961 -0.10412 -0.05722 -0.24922
                  y  -0.01174 -0.01138 -0.11253 -0.23084  0.01777 -0.03325
                  z   0.19702  0.18730 -0.22295  0.10522  0.05342  0.23487
 16   h           x  -0.16323 -0.15570 -0.16635 -0.29135  0.03008 -0.02417
                  y  -0.01569 -0.01425 -0.01072 -0.13790 -0.00139 -0.06624
                  z   0.20046  0.19575  0.34359  0.13436 -0.07485 -0.20047

reduced mass(g/mol)     3.370    3.387    1.468    1.468    1.467    1.467


       mode              25       26       27       28       29       30

     frequency        1411.53  1412.13  1423.92  1425.93  1510.00  1510.23

     symmetry            a        a        a        a        a        a   

        IR               YES      YES      YES      YES      YES      YES
|dDIP/dQ|   (a.u.)     0.0007   0.0007   0.0009   0.0001   0.0009   0.0008
intensity (km/mol)       0.83     0.82     1.35     0.02     1.29     1.02
intensity (  %   )       0.56     0.56     0.92     0.02     0.88     0.69
 
       RAMAN             YES      YES      YES      YES      YES      YES
 
  1   c           x  -0.00322 -0.06877  0.04843 -0.06297  0.00152 -0.01678
                  y  -0.00066 -0.00367  0.00236 -0.00374  0.01612  0.00567
                  z  -0.00212 -0.05912  0.04185 -0.05388 -0.00157  0.01549
  2   c           x  -0.00403 -0.07202 -0.04544  0.06125  0.00045 -0.01292
                  y   0.00016 -0.00465 -0.00300  0.00348 -0.02170 -0.00444
                  z  -0.00278 -0.06213 -0.03945  0.05237  0.00044  0.01261
  3   h           x   0.02712  0.33442 -0.20725  0.28057 -0.29932 -0.03094
                  y   0.00019 -0.11725  0.08676 -0.09420 -0.07550  0.12217
                  z   0.00193  0.17562 -0.12132  0.13157  0.05943 -0.15815
  4   h           x   0.00755  0.16976 -0.09764  0.13975  0.00957  0.06459
                  y   0.01614  0.00521  0.00302  0.00709 -0.38377 -0.13593
                  z   0.01945  0.35750 -0.21770  0.30649 -0.03517  0.13119
  5   h           x   0.00342  0.31762 -0.20291  0.26301  0.27150  0.19087
                  y   0.00364  0.15641 -0.11240  0.12671  0.01744 -0.12962
                  z   0.00388  0.17408 -0.12072  0.13097  0.01285 -0.17945
  6   h           x   0.02924  0.33060  0.18328 -0.25981 -0.31746 -0.02104
                  y   0.00520  0.16499  0.10473 -0.12369 -0.00195 -0.07767
                  z   0.00414  0.18379  0.11369 -0.12672  0.01245 -0.09787
  7   h           x   0.01082  0.17634  0.08986 -0.13570 -0.01663  0.01949
                  y  -0.01442  0.01214  0.00856 -0.00449  0.44255  0.10698
                  z   0.02236  0.37292  0.20280 -0.29756  0.01842  0.07579
  8   h           x   0.00740  0.34888  0.19885 -0.26664  0.32882  0.13156
                  y  -0.00486 -0.12233 -0.08256  0.09072  0.06759  0.09935
                  z   0.00613  0.18237  0.11395 -0.12673 -0.05355 -0.10694
  9   c           x  -0.05827  0.00287  0.05364  0.03970  0.01431  0.00404
                  y  -0.00340  0.00073  0.00290  0.00263  0.00348 -0.01757
                  z   0.06986 -0.00436 -0.06425 -0.04829  0.01439  0.00360
 10   c           x  -0.06093  0.00182 -0.05147 -0.03879  0.01713 -0.00089
                  y  -0.00389 -0.00031 -0.00343 -0.00215 -0.00643  0.02063
                  z   0.07282 -0.00313  0.06170  0.04704  0.01743 -0.00009
 11   h           x   0.16505 -0.00666 -0.14271 -0.08741 -0.12098 -0.02619
                  y   0.15168 -0.00633 -0.13794 -0.08729 -0.10566 -0.02119
                  z  -0.32704  0.00806  0.27332  0.20380 -0.13797  0.27684
 12   h           x   0.35401 -0.02258 -0.28744 -0.23364  0.09106  0.03282
                  y   0.01499 -0.01670 -0.00673 -0.01353 -0.09304  0.40528
                  z  -0.17570  0.01034  0.13508  0.11208 -0.03452 -0.01625
 13   h           x   0.17743 -0.00423 -0.15394 -0.09476 -0.11778 -0.09252
                  y  -0.12596  0.00302  0.11533  0.07343  0.08480  0.07607
                  z  -0.33162  0.03095  0.27056  0.21228  0.01624 -0.32115
 14   h           x   0.18554 -0.00262  0.14795  0.09220 -0.19833  0.06205
                  y  -0.13181  0.00219 -0.11167 -0.07083  0.14457 -0.05007
                  z  -0.34383  0.00362 -0.26214 -0.19984 -0.17946  0.32483
 15   h           x   0.36752 -0.01952  0.27446  0.22763  0.13266 -0.00129
                  y   0.01963  0.01402  0.01592  0.00769  0.14312 -0.43505
                  z  -0.18215  0.00903 -0.12860 -0.10917 -0.05849  0.00684
 16   h           x   0.17167 -0.00021  0.13594  0.08449 -0.16123 -0.01297
                  y   0.15836 -0.00112  0.13097  0.08572 -0.13846 -0.01152
                  z  -0.33939  0.02578 -0.25714 -0.20411  0.01415 -0.31235

reduced mass(g/mol)     1.199    1.199    1.241    1.239    1.028    1.026


       mode              31       32       33       34       35       36

     frequency        1510.73  1512.92  1515.78  1517.67  1518.25  1518.41

     symmetry            a        a        a        a        a        a   

        IR               YES      YES      YES      YES      YES      YES
|dDIP/dQ|   (a.u.)     0.0004   0.0001   0.0002   0.0020   0.0029   0.0024
intensity (km/mol)       0.26     0.02     0.11     7.27    15.27    10.54
intensity (  %   )       0.17     0.01     0.07     4.94    10.38     7.16
 
       RAMAN             YES      YES      YES      YES      YES      YES
 
  1   c           x   0.00772  0.00044 -0.00915 -0.00090  0.01321  0.02555
                  y  -0.01558 -0.03268  0.01032  0.00813 -0.02560  0.02284
                  z  -0.00567  0.00306  0.01341  0.00250 -0.01629 -0.03142
  2   c           x  -0.01250  0.00593  0.00788  0.00105  0.02158  0.01943
                  y  -0.01353 -0.03242  0.01107 -0.01192 -0.02560  0.01730
                  z   0.01181 -0.00600 -0.01347  0.00139 -0.02276 -0.02610
  3   h           x   0.06942  0.22544 -0.02173 -0.14947  0.13321 -0.27543
                  y  -0.10885  0.09372  0.17967 -0.00582 -0.05274 -0.29524
                  z   0.14521 -0.12408 -0.23254 -0.01218  0.05223  0.35472
  4   h           x  -0.09261  0.00577  0.10451  0.01833 -0.02715 -0.07777
                  y   0.18011  0.33794 -0.11367 -0.19977  0.26975 -0.24989
                  z  -0.14715  0.05433  0.18331  0.01017 -0.04678 -0.22848
  5   h           x  -0.18586 -0.19349  0.15769  0.15526 -0.21928  0.01612
                  y   0.12727 -0.03902 -0.18254 -0.02211  0.08587  0.23473
                  z   0.19944 -0.01671 -0.26846 -0.03534  0.13962  0.28861
  6   h           x   0.03093 -0.24864 -0.00994 -0.18043 -0.29446 -0.01414
                  y  -0.16440  0.08264  0.18064  0.00389  0.20261  0.15107
                  z  -0.21170  0.14922  0.23530  0.01532  0.29719  0.17065
  7   h           x   0.09153 -0.05534 -0.09017 -0.01837 -0.09658 -0.03070
                  y   0.11966  0.33705 -0.11424  0.23865  0.27589 -0.13848
                  z   0.19508 -0.06876 -0.18477 -0.00494 -0.18351 -0.12110
  8   h           x   0.14355  0.19025 -0.12544  0.17068  0.08954 -0.15464
                  y   0.19301 -0.03412 -0.20264  0.03019 -0.17097 -0.18084
                  z  -0.25403  0.04101  0.26803 -0.02007  0.20812  0.22333
  9   c           x  -0.01290 -0.00415 -0.01224 -0.03383  0.00407 -0.00440
                  y  -0.01234  0.03519 -0.00560 -0.00126 -0.03360  0.00930
                  z  -0.01388 -0.00010 -0.00783 -0.02703  0.00417 -0.00302
 10   c           x   0.00852  0.00083  0.01288 -0.03455 -0.00012 -0.00206
                  y  -0.00470  0.03563 -0.00455 -0.00536 -0.02329  0.02475
                  z   0.00875  0.00087  0.00810 -0.02799 -0.00243  0.00191
 11   h           x   0.27899 -0.02337  0.23687  0.28882 -0.00276  0.04024
                  y   0.21773  0.00495  0.18532  0.24472 -0.02124  0.04419
                  z   0.20780 -0.22259  0.10089  0.10416  0.24114  0.03208
 12   h           x  -0.22255 -0.00930 -0.17330 -0.19550  0.04139 -0.04378
                  y   0.15654 -0.36604  0.04893 -0.03122  0.41014 -0.01113
                  z   0.11854  0.00517  0.09498  0.07762 -0.02190  0.02200
 13   h           x   0.25164  0.10358  0.23388  0.30634 -0.12394  0.07704
                  y  -0.17521 -0.05781 -0.16316 -0.23078  0.07821 -0.04299
                  z  -0.02640  0.23548  0.01816  0.13509 -0.29857  0.00520
 14   h           x  -0.23481  0.02719 -0.25425  0.32009  0.00419  0.02332
                  y   0.15218 -0.00386  0.16963 -0.23244 -0.01676 -0.01356
                  z  -0.06276  0.22788 -0.09311  0.07138 -0.08718  0.22385
 15   h           x   0.18123  0.03740  0.17149 -0.21505 -0.04848  0.04238
                  y   0.01978 -0.36794  0.06231  0.05890  0.17895 -0.34332
                  z  -0.10093 -0.01679 -0.09420  0.08748  0.02526 -0.02128
 16   h           x  -0.20236 -0.09580 -0.22213  0.31233  0.08274 -0.06167
                  y  -0.16776 -0.05568 -0.18427  0.26976  0.04833 -0.03862
                  z  -0.07517 -0.23818 -0.02996  0.18064  0.11905 -0.25085

reduced mass(g/mol)     1.024    1.060    1.022    1.053    1.057    1.055


       mode              37       38       39       40       41       42

     frequency        3027.52  3027.83  3028.15  3028.35  3073.82  3074.05

     symmetry            a        a        a        a        a        a   

        IR               YES      YES      YES      YES      YES      YES
|dDIP/dQ|   (a.u.)     0.0003   0.0009   0.0057   0.0056   0.0000   0.0006
intensity (km/mol)       0.18     1.54    57.93    56.52     0.00     0.59
intensity (  %   )       0.12     1.05    39.38    38.42     0.00     0.40
 
       RAMAN             YES      YES      YES      YES      YES      YES
 
  1   c           x  -0.01197 -0.02025 -0.00060 -0.03118  0.02847  0.02946
                  y  -0.00024 -0.00042 -0.00001  0.00104  0.00603  0.00650
                  z  -0.00890 -0.01557 -0.00102 -0.02428 -0.03467 -0.03560
  2   c           x   0.01462  0.02842 -0.00064 -0.02163 -0.02870 -0.02963
                  y   0.00148  0.00306 -0.00011 -0.00364 -0.00096 -0.00271
                  z   0.01111  0.02227 -0.00100 -0.01742  0.03461  0.03559
  3   h           x  -0.01710 -0.02949 -0.00201 -0.04865 -0.01028 -0.01009
                  y   0.13011  0.22361  0.01294  0.35315  0.15118  0.15158
                  z   0.09402  0.16215  0.00880  0.25311  0.09903  0.09888
  4   h           x   0.15608  0.26346  0.00924  0.41947 -0.34206 -0.35451
                  y   0.01138  0.01867  0.00041  0.03046 -0.02295 -0.02353
                  z  -0.08788 -0.14832 -0.00553 -0.23951  0.18502  0.19193
  5   h           x   0.00032  0.00094  0.00004 -0.00084  0.01058  0.01073
                  y  -0.13837 -0.23751 -0.01298 -0.39519 -0.19990 -0.20590
                  z   0.09671  0.16604  0.00865  0.27454  0.13186  0.13586
  6   h           x   0.00063  0.00171 -0.00034 -0.00274 -0.00911 -0.00932
                  y   0.16530  0.32671 -0.01289 -0.25724  0.17065  0.18423
                  z  -0.11672 -0.23085  0.00857  0.17960 -0.11219 -0.12177
  7   h           x  -0.19326 -0.37692  0.00979  0.29886  0.34099  0.35360
                  y  -0.01138 -0.02270  0.00083  0.01749  0.02101  0.02147
                  z   0.10908  0.21316 -0.00583 -0.17134 -0.18442 -0.19139
  8   h           x   0.02171  0.04300 -0.00164 -0.03742  0.01258  0.01171
                  y  -0.17070 -0.33973  0.01297  0.28252 -0.17932 -0.17299
                  z  -0.12163 -0.24192  0.00888  0.20015 -0.11857 -0.11332
  9   c           x   0.01836 -0.01021 -0.02128  0.00038  0.03628 -0.03513
                  y   0.00035 -0.00018  0.00093 -0.00001 -0.00169  0.00021
                  z  -0.02462  0.01307  0.02764  0.00013  0.02909 -0.02843
 10   c           x  -0.01913  0.01023 -0.02029  0.00161 -0.03607  0.03489
                  y  -0.00218  0.00120 -0.00362  0.00020 -0.00288  0.00304
                  z   0.02557 -0.01333  0.02643 -0.00142 -0.02919  0.02842
 11   h           x  -0.21370  0.11668  0.25905 -0.00227 -0.13721  0.12543
                  y   0.27751 -0.15173 -0.33828  0.00343  0.18987 -0.17480
                  z  -0.00919  0.00485  0.01305 -0.00013  0.00389 -0.00390
 12   h           x   0.18520 -0.09870 -0.21806 -0.00000 -0.19720  0.19283
                  y   0.00037 -0.00055 -0.00029  0.00021 -0.00128  0.00098
                  z   0.31619 -0.16822 -0.36727 -0.00045 -0.35084  0.34276
 13   h           x  -0.18451  0.10071  0.21229 -0.00206 -0.10073  0.10268
                  y  -0.28231  0.15404  0.32823 -0.00397 -0.16900  0.17136
                  z  -0.02012  0.01117  0.02529 -0.00054 -0.00221  0.00268
 14   h           x   0.19796 -0.10493  0.22095 -0.01451  0.11674 -0.11341
                  y   0.30770 -0.16309  0.34530 -0.02310  0.19525 -0.18964
                  z   0.02019 -0.01054  0.02444 -0.00149  0.00265 -0.00275
 15   h           x  -0.19290  0.10060 -0.20936  0.01177  0.19717 -0.19234
                  y  -0.00440  0.00206 -0.00513 -0.00003  0.00342 -0.00307
                  z  -0.32949  0.17168 -0.35289  0.01951  0.35102 -0.34206
 16   h           x   0.21717 -0.11475  0.23020 -0.01600  0.11883 -0.11235
                  y  -0.27825  0.14663 -0.29770  0.02115 -0.16478  0.15635
                  z   0.01112 -0.00595  0.01367 -0.00123 -0.00331  0.00335

reduced mass(g/mol)     1.036    1.036    1.034    1.034    1.100    1.100


       mode              43       44       45       46       47       48

     frequency        3076.11  3076.42  3100.01  3100.05  3100.28  3102.98

     symmetry            a        a        a        a        a        a   

        IR               YES      YES      YES      YES      YES      YES
|dDIP/dQ|   (a.u.)     0.0005   0.0005   0.0067   0.0064   0.0091   0.0006
intensity (km/mol)       0.40     0.46    78.80    73.39   147.12     0.69
intensity (  %   )       0.27     0.32    53.56    49.88   100.00     0.47
 
       RAMAN             YES      YES      YES      YES      YES      YES
 
  1   c           x  -0.00072  0.00190 -0.02549 -0.02590 -0.02149  0.00565
                  y   0.00167 -0.06394 -0.01452 -0.01260  0.03919 -0.04905
                  z   0.00073 -0.00011  0.03142  0.03126  0.02350 -0.00407
  2   c           x  -0.00117 -0.00990 -0.02554 -0.02607 -0.01984  0.00309
                  y  -0.00165  0.06455 -0.02184 -0.01562  0.03491 -0.04836
                  z   0.00153  0.00494  0.03249  0.03201  0.02051  0.00059
  3   h           x   0.00217 -0.05060  0.00312  0.00365  0.03875 -0.03708
                  y  -0.01468  0.39698 -0.07862 -0.08820 -0.36207  0.31855
                  z  -0.01053  0.30211 -0.04808 -0.05516 -0.26621  0.24165
  4   h           x   0.00634  0.03059  0.31082  0.31493  0.22095 -0.02660
                  y   0.00131 -0.01586  0.01908  0.01958  0.02512 -0.01326
                  z  -0.00325 -0.01618 -0.16617 -0.16850 -0.11833  0.01463
  5   h           x  -0.00021 -0.00365 -0.01039 -0.00983 -0.00282 -0.00367
                  y  -0.00680  0.38711  0.23212  0.21786 -0.13053  0.28008
                  z   0.00545 -0.28467 -0.16004 -0.14895  0.10491 -0.20733
  6   h           x   0.00008 -0.00072 -0.00879 -0.00899 -0.00336 -0.00310
                  y   0.01821 -0.38414  0.28543  0.24302 -0.12061  0.30025
                  z  -0.01256  0.28831 -0.20111 -0.16960  0.09680 -0.22452
  7   h           x   0.01433  0.07082  0.31603  0.31841  0.20793 -0.00138
                  y   0.00004  0.02262  0.01433  0.01619  0.02104 -0.01123
                  z  -0.00752 -0.03906 -0.16873 -0.17019 -0.11157  0.00099
  8   h           x  -0.00067  0.04809 -0.00262  0.00153  0.03122 -0.03248
                  y   0.00174 -0.41401 -0.03899 -0.07218 -0.31596  0.28791
                  z   0.00214 -0.30846 -0.01697 -0.04157 -0.22983  0.21605
  9   c           x  -0.00489  0.00054  0.03483 -0.03658  0.00225 -0.00016
                  y   0.06445  0.00164 -0.01362 -0.01705  0.04424  0.04350
                  z  -0.00231  0.00050  0.02796 -0.03022  0.00379  0.00160
 10   c           x   0.00055  0.00174  0.03595 -0.03619 -0.00078 -0.00405
                  y  -0.06466 -0.00151 -0.01672 -0.00964  0.04507  0.04316
                  z  -0.00460  0.00133  0.02836 -0.02982  0.00240 -0.00054
 11   h           x   0.31359  0.00575 -0.18505  0.05191  0.19628  0.20083
                  y  -0.38857 -0.00662  0.24444 -0.08123 -0.23963 -0.24764
                  z   0.00940  0.00041  0.00215 -0.00610  0.00520  0.00495
 12   h           x   0.02432 -0.00254 -0.18777  0.19833 -0.01961 -0.00503
                  y   0.01817  0.00086 -0.00386 -0.00350  0.01016  0.00998
                  z   0.04469 -0.00478 -0.33783  0.35652 -0.03444 -0.00792
 13   h           x  -0.27917 -0.00925 -0.04225  0.18535 -0.20334 -0.19426
                  y  -0.40387 -0.01422 -0.07909  0.28853 -0.29785 -0.28152
                  z  -0.02706 -0.00128  0.00251  0.00987 -0.01657 -0.01585
 14   h           x   0.28026  0.00178 -0.02962  0.14686 -0.19379 -0.17674
                  y   0.41444  0.00142 -0.06283  0.23510 -0.28576 -0.25969
                  z   0.02358  0.00056  0.00364  0.00473 -0.01466 -0.01384
 15   h           x   0.02608 -0.00846 -0.18980  0.19689 -0.01228  0.00734
                  y  -0.01764 -0.00099 -0.00784  0.00203  0.01033  0.01005
                  z   0.04443 -0.01552 -0.34208  0.35430 -0.02083  0.01395
 16   h           x  -0.31304 -0.01370 -0.20898  0.08741  0.21501  0.21805
                  y   0.37984  0.01797  0.27074 -0.12293 -0.26146 -0.26533
                  z  -0.01342 -0.00075  0.00011 -0.00382  0.00748  0.00614

reduced mass(g/mol)     1.100    1.100    1.102    1.102    1.103    1.102
 

         **************************************************************
         *                                                            *
         *  zero point VIBRATIONAL energy  :      0.1496579  Hartree  *
         *    SCF-energy                   :   -159.7409258           *
         *    SCF + E(vib0)                :   -159.5912679           *
         *                                                            *
         **************************************************************




 time elapsed for vibrational analysis     2.53 sec


    ------------------------------------------------------------------------
         total  cpu-time :  1 hours  2 minutes and 42 seconds
         total wall-time :  2 minutes and 28 seconds
    ------------------------------------------------------------------------

   ****  force : all done  ****


    2020-06-21 22:29:08.060 

