           Doing BLAS/Lapack in the master proc. with 16 CPUs.
           SMPCPUS    set: Shared-memory Parallelization with  28 CPUs.

           SMP Parallelization Reference:
           C. van Wullen, J. Comput. Chem. 32 (2011) 1195--1201

 force (c-19-411) : TURBOMOLE V7.2 ( 21454 ) 4 Oct 2017 at 12:48:15
 Copyright (C) 2017 TURBOMOLE GmbH, Karlsruhe


    2020-06-24 00:08:26.674 



                             T U R B O M O L E   

                          a o f o r c e - program

                        using direct algorithms for

                       SCF level calculations of
                         * harmonic force constants
                         * hyperpolarizabilities
                         * IR and RAMAN intensities
                         * VCD intensities

                       DFT level calculations of
                         * harmonic force constants
                         * IR intensities
                                                   
       Stephan Boecker, Peter Deglmann, Filipp Furche and Marco Haeser
                          Quantum Chemistry Group
                          Universitaet  Karlsruhe
                                   Germany

 
 
 
 
     References :
 
       RI-J implementation:
         Peter Deglmann, Klaus May, Filipp Furche, Reinhart Ahlrichs
                 Chem. Phys. Lett. 384:103 (2004)
 
       Efficiency, technical details:
         Peter Deglmann, Filipp Furche, Reinhart Ahlrichs
                 Chem. Phys. Lett. 362:511 (2002)
 
       Search of lowest eigenvalues by iterative diagonalization:
         Peter Deglmann, Filipp Furche
                 J. Chem. Phys. 117:9535 (2002)
 
       Vibrational circular dichroism implementation:
        Kevin Reiter, Michael Kuehn, Florian Weigend
                 J. Chem. Phys. 146:054102 (2017)  
 
 


              +--------------------------------------------------+
              | Atomic coordinate, charge and isotop information |
              +--------------------------------------------------+

                    atomic coordinates            atom    charge  isotop
          2.72021602   -5.12627887    3.73002083    h      1.000     0
          1.43226440   -4.93189886    2.14930254    c      6.000     0
         -1.11374927   -4.42917088    2.58154333    c      6.000     0
         -1.80724004   -4.23082231    4.49846570    h      1.000     0
         -2.76589959   -4.17075874    0.55082494    c      6.000     0
         -4.74801266   -3.77706213    0.88735966    h      1.000     0
         -1.87234954   -4.40710148   -1.91203740    c      6.000     0
         -3.15632664   -4.19082277   -3.49298019    h      1.000     0
          0.67344167   -4.90965660   -2.34455985    c      6.000     0
          1.37068543   -5.08607670   -4.26230638    h      1.000     0
          2.32537011   -5.17443774   -0.31379397    c      6.000     0
          4.30853083   -5.56153433   -0.65050631    h      1.000     0
          3.80335090    7.60326445   -0.79818733    h      1.000     0
          2.23418048    6.31969514   -0.50107531    c      6.000     0
          2.65002695    3.72230046   -0.44044476    c      6.000     0
          4.54424555    2.98211933   -0.69068155    h      1.000     0
          0.63749580    2.07201378   -0.05926427    c      6.000     0
          0.95619434    0.05160604   -0.01258170    h      1.000     0
         -1.79341303    3.02418767    0.26138691    c      6.000     0
         -3.35627508    1.73398787    0.55729543    h      1.000     0
         -2.21269112    5.62041390    0.20145991    c      6.000     0
         -4.10715667    6.36011112    0.45143818    h      1.000     0
         -0.19808585    7.26942960   -0.18003194    c      6.000     0
         -0.52314872    9.29171638   -0.22699243    h      1.000     0
 
       center of nuclear mass  :   -0.00022942    0.00070959   -0.00057662
       center of nuclear charge:   -0.00018322    0.00095602   -0.00059280

              +--------------------------------------------------+
              |               basis set information              |
              +--------------------------------------------------+

              we will work with the 1s 3p 5d 7f 9g ... basis set
              ...i.e. with spherical basis functions...

   type   atoms  prim   cont   basis
   ---------------------------------------------------------------------------
    h       12      8      6   def2-TZVP   [3s1p|5s1p]
    c       12     46     31   def2-TZVP   [5s3p2d1f|11s6p2d1f]
   ---------------------------------------------------------------------------
   total:   24    648    444
   ---------------------------------------------------------------------------

   total number of primitive shells          :   26
   total number of contracted shells         :  180
   total number of cartesian basis functions :  504
   total number of SCF-basis functions       :  444

 
             FOUND RI-J FLAG !
 

 NOTE: THIS IS A PRELIMINARY IMPLEMENTATION. THE RI APPROXIMATION IS
       PRESENTLY USED FOR CPKS CONTRIBUTIONS TO THE HESSIAN ONLY! SEE
       MANUAL FOR FURTHER DETAILS.

  
 AUXILIARY BASIS SET information:

              we will work with the 1s 3p 5d 7f 9g ... basis set
              ...i.e. with spherical basis functions...

   type   atoms  prim   cont   basis
   ---------------------------------------------------------------------------
    h       12     16     11   def2-TZVP   [3s1p1d|5s2p1d]
    c       12     70     49   def2-TZVP   [6s4p3d1f1g|12s5p4d2f1g]
   ---------------------------------------------------------------------------
   total:   24   1032    720
   ---------------------------------------------------------------------------

   total number of primitive shells          :   32
   total number of contracted shells         :  240
   total number of cartesian basis functions :  876
   total number of SCF-basis functions       :  720


 symmetry group of the molecule :   c1 

 the group has the following generators :
   c1(z)

    1 symmetry operations found

 there are 1 real representations :   a   

 maximum number of shells which are related by symmetry :  1


 determining totally symmetric integral contributions 
    - equivalent to irreducible tensor elements - 
 which can be formed within each triple of representations :

             representation triple      contributions

              a     a     a               1

    mo occupation :
   irrep   mo's   occupied
    a      444       42
 
 number of basis functions   :                    444
 number of occupied orbitals :                     42
 
  MOs are in ASCII format !


 reading orbital data $scfmo  from file mos
 orbital characterization : scfconv=7
 time elapsed for calculating density matrices :   0.311 sec

 number of non-frozen orbitals          :   444
 number of non-frozen occupied orbitals :    42
 Blocking parameters 
 shells:
    index      start shell   last shell  start bf    last bf    #bf 
       1             1         180             1        504    504
  
           ----------------------
               RI - INFORMATION
           ----------------------

 biggest AO integral is expected to be     5.725698708

 Threshold for integral neglect (rithr2):   0.50E-11
 Threshold for integral neglect (rithr1):   0.50E-11

 Contributions to RI integral batches: 
  neglected integral batches:                  3065
  direct contribution:                            0
  memory contribution:                 13225
 Core memory available (ricore):             55000 MiB
 Core memory needed for (P|Q) and Cholesky:      4 MiB
 Core memory used for integrals:               692 MiB
 
 ****************************************
 Memory allocated for RIDFT: 696 MiB
 ****************************************
 
  
           ------------------
           density functional
           ------------------
 TPSS global hybrid functional
 exchange:    9/10 (LDA+TPSS) + 1/10 HF
 correlation: LDA (PW) + TPSS

 spherical integration : Lebedev's spherical grid
 spherical gridsize    :                     4
    i.e. gridpoints    :                   434
 value for diffuse not defined
 radial integration    : Chebyshev 2nd kind (scaling 3)
 radial gridsize       :                     6
 integration cells     :                    24
 partition function    : becke
 partition sharpness   :                     3
  
 
 Derivatives of quadrature weights will be included
 
          Overall gridpoints after grid construction =        230383
 Ordering of quadrature gridpoints disabled.
 
 
 
 
 OCCUPIED-OCCUPIED TENSOR SPACES :

          IRREP   tensor space dimension   number of roots

           a              1764                  66
 
 OCCUPIED-VIRTUAL TENSOR SPACES :

          IRREP   tensor space dimension   number of roots

           a             16884                  66
 
 
 
 
 CONSTRUCTING integral bounds

 setting up bound for integral derivative estimation

 increment for numerical differentiation : 0.00050000
 
 machine precision:   2.220446049250313E-016

 integral neglect threshold       :  0.10E-09
 integral storage threshold THIZE :  0.10E-04
 integral storage threshold THIME :         5

 
 
 
 PREPARING NUMERICAL INTEGRATION
 
 Remaining core memory for DFT =                 97580 MB
 
 Memory needed per atom    =                  2982 KiB
 
     i. e.                    24 atoms per loop

 Calculating ground state density on molecular grid

 Integral of ground state density: N =   84.00001490767377    


 
 
 CONSTRUCTING first deriv. of <mu|x,y,z|nu> -> Dip. deriv.
  dipole integral derivatives will be neglected if
  expon. factor <0.992063E-12
      ...terminated. cpu:       1.01       wall:       0.04
 
 
 
 
 CONSTRUCTING first deriv. of  <mu|nu>
                               <mu|h|nu>    -> RHS
              second deriv. of <mu|nu>      -> Hessian
                               <mu|h|nu>    -> Hessian
                               nucl. rep.   -> Hessian
     integrals are neglected if expon. factor <  9.920634920634920E-014
  _________________________________
 |                                 |
 |         DFTD3 V3.1 Rev 0        |
 | S.Grimme, University Bonn       |
 |         June 2014               |
 |   see standalone version        |
 |       dftd3 -h for options      |
 |_________________________________|
 
 Please cite DFT-D3 work done with this code as:
 S. Grimme, J. Antony, S. Ehrlich and H. Krieg,
 J. Chem. Phys, 132 (2010), 154104.
 If used with BJ-damping cite also
 S. Grimme, S. Ehrlich and L. Goerigk,
 J. Comput. Chem. 32 (2011), 1456-1465
 For DFT-D2 the reference is
 S. Grimme, J. Comput. Chem., 27 (2006), 1787-1799
 
      ...terminated. cpu:      19.27       wall:       1.91
 
 
 
 
 CONSTRUCTING second deriv. of 2e energy    -> Hessian
   treating Coulomb (and exchange) contribution
     integrals will be neglected if total contribution <  9.920634920634920E-010
      ...terminated. cpu:     989.41       wall:      36.03
   treating exchange-correlation contribution
      ...terminated. cpu:     618.25       wall:      22.39
 
 
 
 
 CONSTRUCTING S(i,j)xi
      ...terminated. cpu:       0.02       wall:       0.02
 
 
 
 
 CONSTRUCTING <i|x,y,z|j>*S(i,j)xi          -> Dip. deriv.
      ...terminated. cpu:       0.50       wall:       0.03
 
 
 
 
 CONSTRUCTING epsilon(i)*S(i,j)xi*S(i,j)chi -> Hessian
      ...terminated. cpu:       0.06       wall:       0.00
 
 
 
 
 CONSTRUCTING G(a,i)[S(k,l)xi]              -> RHS
              G(i,j)[S(k,l)xi]*S(i,j)chi    -> Hessian
 
         Maximum core memory set to                  98000 MB
         This corresponds to                 50057 vectors in CAO basis
      ...terminated. cpu:    3288.86       wall:     117.44
 
 
 
 
 CONSTRUCTING G(mu,nu)[D(kap,lam)]xi
 
          Maximum core memory set to                  98000 MB
          Atoms treated simultaneously :                    24
      ...terminated. cpu:    1749.85       wall:      62.60
 
 
 
 
 CONSTRUCTING F(a,i)xi                      -> RHS
              F(i,j)xi*S(i,j)chi            -> Hessian
 
        Maximum core memory set to                 98000 MB
        This corresponds to                 89112 vectors in CAO basis
      ...terminated. cpu:      19.27       wall:       1.29
 
 
 
 
 CONSTRUCTING epsilon(i)*S(a,i)xi           -> RHS
      ...terminated. cpu:       5.66       wall:       0.20
 
 
 
 
 SOLVING CPHF equations
 
 Residuum convergence criterium   :  1.000000000000000E-005
 
 Maximum number of Davidson iterations set to                    25


                       Nonorthonormal Krylov Space Iteration


 total number of roots to be determined:  66


 maximum core memory set to 98000 MB,
 corresponding to    49886 vectors in CAO basis


 maximum number of simultaneously treated vectors (including degeneracy):       66


 Iteration IRREP Converged      Max. Euclidean
                 roots          residual norm

    1       a        0        6.781779784257999D-02
 
    2       a        0        8.275143415965134D-03
 
    3       a        0        6.404889385596372D-04
 
    4       a       16        3.903601882675422D-05
 
    5       a       66        9.949349556929008D-06
 

 converged!

      ...terminated. cpu:   13197.88       wall:     471.87
 
 
 
 
 CONSTRUCTING <a|x,y,z|i>*U(a,i)xi          -> Dip. deriv.
      ...terminated. cpu:       1.24       wall:       0.04
 
 
 
 
 CONSTRUCTING RHS(a,i)xi*U(a,i)chi          -> Hessian
      ...terminated. cpu:       0.51       wall:       0.02
 
 
 
 

            -----------------------
            permanent dipole moment
            -----------------------

                                   x                y                z
    electronic part       :    0.0117158587    -0.2612277785     0.0493269744
     nuclear   part       :   -0.0153906957     0.0803055691    -0.0497951301
     total                :   -0.0036748370    -0.1809222094    -0.0004681557

 with reference to the point :   0.0000000        0.0000000        0.0000000
 (given in atomic units)
    | dipole |       :    0.4599582535  debye

   ***  dipole moment & cartesian dipole gradients written onto
        $dipole, $dipgrad,  file=<dipgrad>  ***

             -----------------------------------
             rotational and vibrational analysis
             -----------------------------------


            ==============================================================
            ATOMIC WEIGHTS (average over the natural occurance of isotops)
            ==============================================================
            ('*' denotes special isotop !)
              1     h                 1.00797
              2     c                12.01115
              3     c                12.01115
              4     h                 1.00797
              5     c                12.01115
              6     h                 1.00797
              7     c                12.01115
              8     h                 1.00797
              9     c                12.01115
             10     h                 1.00797
             11     c                12.01115
             12     h                 1.00797
             13     h                 1.00797
             14     c                12.01115
             15     c                12.01115
             16     h                 1.00797
             17     c                12.01115
             18     h                 1.00797
             19     c                12.01115
             20     h                 1.00797
             21     c                12.01115
             22     h                 1.00797
             23     c                12.01115
             24     h                 1.00797

          -------------------------------------------------
          CARTESIAN FORCE CONSTANT MATRIX (hartree/bohr**2)
         (translational & rotational space projected out)
          -------------------------------------------------

   ATOM              1 h                           2 c 
                  dx        dy        dz        dx        dy        dz
   1 h     dx  0.1747181
           dy -0.0238025 0.0293283
           dz  0.1443687-0.0208032 0.2353048
   2 c     dx -0.1672042 0.0206105-0.1335716 0.6704769
           dy  0.0206808-0.0397594 0.0194929-0.1018948 0.1535259
           dz -0.1335779 0.0193132-0.2230217 0.0392367 0.0095437 0.7036619
   3 c     dx -0.0143421 0.0034155 0.0051686-0.3178336 0.0495781 0.0014666
           dy  0.0024402 0.0022189-0.0008366 0.0513520-0.0713437-0.0022031
           dz -0.0261014 0.0051215 0.0077444 0.0634856-0.0141137-0.1327147
   4 h     dx  0.0010316-0.0009632-0.0004963-0.0054348 0.0025425 0.0306948
           dy -0.0009284-0.0037168 0.0002467 0.0015094 0.0022617-0.0060510
           dz  0.0004189 0.0000857 0.0008002-0.0005722-0.0000294-0.0011632
   5 c     dx -0.0049860 0.0024517 0.0015980-0.0418739 0.0089742-0.0173521
           dy  0.0024385 0.0068840-0.0004933 0.0080159 0.0063014 0.0042527
           dz  0.0026274-0.0006531 0.0012830-0.0602047 0.0123543 0.0475466
   6 h     dx -0.0008899 0.0002363 0.0003683-0.0001678 0.0013016-0.0041933
           dy  0.0001830 0.0002055-0.0000726 0.0013644 0.0071243 0.0004853
           dz -0.0013556 0.0002663 0.0002430-0.0031353 0.0002726-0.0037753
   7 c     dx -0.0004663 0.0000212 0.0010018-0.0373638 0.0062633 0.0319323
           dy  0.0000043-0.0006212-0.0001832 0.0063854-0.0102117-0.0065931
           dz  0.0010045-0.0002097-0.0000723 0.0319038-0.0066089-0.0258629
   8 h     dx  0.0000087-0.0002766-0.0000981-0.0004682-0.0000000 0.0010113
           dy -0.0002683-0.0013264 0.0000648-0.0000201-0.0006022-0.0001558
           dz -0.0001020 0.0000480 0.0000169 0.0010025-0.0001669-0.0000724
   9 c     dx  0.0004934 0.0013910 0.0037012 0.0571727-0.0107547-0.0409283
           dy  0.0013816 0.0069614-0.0010521-0.0094784 0.0100282 0.0062347
           dz  0.0026711-0.0008213-0.0043944 0.0018733-0.0021804-0.0549565
  10 h     dx  0.0003806-0.0000603-0.0011151-0.0020069 0.0017034-0.0034797
           dy -0.0000107 0.0003026 0.0001789 0.0016376 0.0069570 0.0004135
           dz  0.0006129-0.0001542-0.0010592-0.0045084 0.0006348-0.0018817
  11 c     dx  0.0105872-0.0021577-0.0212794-0.1485767 0.0195715 0.0960352
           dy -0.0011933 0.0031698 0.0034261 0.0179068-0.0658471-0.0254635
           dz  0.0100114-0.0024374-0.0179859 0.0341897-0.0137899-0.3077559
  12 h     dx  0.0006812-0.0008754 0.0003583-0.0066909 0.0017856-0.0008170
           dy -0.0008886-0.0037908 0.0000942 0.0026379 0.0023143 0.0000315
           dz -0.0005793 0.0002572 0.0011682 0.0304558-0.0058923 0.0000888
  13 h     dx  0.0000021 0.0000047-0.0000003-0.0000065-0.0000087-0.0000085
           dy  0.0000029 0.0000039 0.0000052-0.0000294-0.0000170-0.0000327
           dz -0.0000027 0.0000047-0.0000042 0.0000073-0.0000145 0.0000039
  14 c     dx  0.0000016-0.0000192 0.0000177-0.0000159 0.0000131-0.0000356
           dy  0.0000128-0.0000259 0.0000171-0.0000439-0.0000011 0.0000046
           dz  0.0000004-0.0000005 0.0000031-0.0000334-0.0000389-0.0000084
  15 c     dx  0.0000098-0.0000036-0.0000385 0.0001244 0.0000712 0.0000441
           dy  0.0000107-0.0000058 0.0000144-0.0000910 0.0000447-0.0001067
           dz  0.0000026-0.0000435 0.0000279 0.0000079 0.0000663-0.0000177
  16 h     dx  0.0000027-0.0000208 0.0000164-0.0000138 0.0000151 0.0000191
           dy -0.0000031-0.0000123 0.0000078 0.0000168 0.0000455 0.0000544
           dz -0.0000051 0.0000361-0.0000272 0.0000194-0.0000232 0.0000188
  17 c     dx  0.0000291-0.0000461 0.0000342-0.0001655 0.0002753 0.0001700
           dy  0.0000002-0.0000501-0.0000038 0.0000370-0.0000115 0.0003493
           dz  0.0000185-0.0000697 0.0000540 0.0003359 0.0004459 0.0000004
  18 h     dx -0.0000455 0.0000856-0.0000536 0.0002340-0.0001016-0.0003325
           dy -0.0000309 0.0001692-0.0000888 0.0000387-0.0005750 0.0003567
           dz -0.0000224 0.0000700-0.0000772-0.0004555 0.0000936-0.0000747
  19 c     dx -0.0000521 0.0000502-0.0000289-0.0001333-0.0000832 0.0000525
           dy -0.0000180 0.0000319 0.0000043 0.0000234-0.0001851-0.0002793
           dz  0.0000257-0.0000328 0.0000134 0.0001659 0.0000117-0.0000298
  20 h     dx  0.0000193-0.0000122 0.0000215-0.0000504 0.0000153-0.0000211
           dy -0.0000265-0.0000012-0.0000060 0.0000465-0.0000008-0.0000228
           dz -0.0000130 0.0000076-0.0000035-0.0002125 0.0000033 0.0000355
  21 c     dx  0.0000212-0.0000047 0.0000120 0.0000178 0.0000421 0.0000334
           dy  0.0000029 0.0000111-0.0000138 0.0000710 0.0000095-0.0000581
           dz  0.0000026 0.0000058-0.0000082 0.0000355-0.0000741-0.0000250
  22 h     dx -0.0000037-0.0000064 0.0000009 0.0000157 0.0000133 0.0000142
           dy -0.0000014 0.0000090-0.0000021-0.0000208-0.0000238-0.0000338
           dz -0.0000040 0.0000057-0.0000020-0.0000070-0.0000009-0.0000054
  23 c     dx  0.0000014-0.0000137 0.0000107-0.0000351-0.0000101 0.0000308
           dy  0.0000084 0.0000074 0.0000025-0.0000598-0.0000233-0.0000237
           dz  0.0000012 0.0000014-0.0000017-0.0000055 0.0000054 0.0000002
  24 h     dx  0.0000017-0.0000042 0.0000036-0.0000004 0.0000067 0.0000050
           dy  0.0000054 0.0000070 0.0000006-0.0000148-0.0000106-0.0000159
           dz -0.0000024 0.0000022-0.0000014-0.0000135 0.0000087 0.0000090

   ATOM              3 c                           4 h 
                  dx        dy        dz        dx        dy        dz
   3 c     dx  0.6495471
           dy -0.1001618 0.1537329
           dz -0.0206074 0.0221644 0.7250324
   4 h     dx -0.0900311 0.0132516 0.0869961 0.0913094
           dy  0.0132805-0.0398551-0.0257782-0.0158974 0.0293797
           dz  0.0870512-0.0255834-0.3002547-0.0939930 0.0279416 0.3187238
   5 c     dx -0.2063845 0.0238433-0.1314902 0.0110097-0.0011708 0.0111540
           dy  0.0257283-0.0662019 0.0199909-0.0022075 0.0032047-0.0028284
           dz -0.0695368 0.0075932-0.2502139-0.0200892 0.0033329-0.0183861
   6 h     dx -0.0151845 0.0036845 0.0061532 0.0007951-0.0009254-0.0002282
           dy  0.0028478 0.0023125-0.0010920-0.0009090-0.0037894 0.0002158
           dz -0.0251005 0.0050469 0.0085763 0.0006957 0.0000049 0.0010497
   7 c     dx  0.0574514-0.0093032 0.0019138-0.0020064 0.0016686-0.0045169
           dy -0.0104827 0.0100577-0.0020534 0.0016830 0.0069222 0.0005846
           dz -0.0410485 0.0060751-0.0549813-0.0034751 0.0004188-0.0018867
   8 h     dx  0.0004911 0.0013873 0.0026634 0.0003907 0.0000081 0.0006129
           dy  0.0014210 0.0069464-0.0008369-0.0000389 0.0002805-0.0001539
           dz  0.0037029-0.0010007-0.0043952-0.0011158 0.0001723-0.0010580
   9 c     dx -0.0559187 0.0084644-0.0213501-0.0010501 0.0000449-0.0006656
           dy  0.0083414-0.0103763 0.0041917 0.0000629-0.0005841 0.0001471
           dz -0.0214338 0.0041215-0.0071573-0.0006710 0.0001453 0.0005117
  10 h     dx -0.0010456 0.0000669-0.0006628 0.0000707-0.0002776 0.0000803
           dy  0.0000987-0.0006206 0.0001813-0.0002801-0.0013302 0.0000326
           dz -0.0006599 0.0001615 0.0005131 0.0000761 0.0000136-0.0000454
  11 c     dx -0.0082777 0.0041017 0.0366868-0.0056273 0.0024886 0.0008202
           dy  0.0049930 0.0065258-0.0070092 0.0025047 0.0068441-0.0003209
           dz  0.0794227-0.0153903 0.0136867-0.0002052-0.0000908 0.0019101
  12 h     dx  0.0017293 0.0011713 0.0022573-0.0004562 0.0001280-0.0001269
           dy  0.0011303 0.0071341-0.0008281 0.0001781 0.0002235 0.0000044
           dz  0.0012329-0.0006188-0.0056708 0.0016034-0.0003158-0.0001868
  13 h     dx  0.0000024-0.0000105-0.0000098-0.0000005 0.0000070-0.0000026
           dy  0.0000117-0.0000244-0.0000372 0.0000003 0.0000081 0.0000008
           dz  0.0000051-0.0000047 0.0000021 0.0000040 0.0000018-0.0000028
  14 c     dx -0.0000232-0.0000083-0.0000438-0.0000101-0.0000090 0.0000020
           dy  0.0000097-0.0000545-0.0000668 0.0000057 0.0000226-0.0000152
           dz  0.0000056-0.0000528 0.0000005-0.0000024 0.0000041-0.0000031
  15 c     dx -0.0000648 0.0001102 0.0001021-0.0000331-0.0000344 0.0000093
           dy -0.0000146-0.0000142-0.0001395-0.0000156-0.0000212 0.0000346
           dz -0.0000079-0.0000046 0.0000245-0.0000145-0.0000083 0.0000122
  16 h     dx  0.0000083-0.0000130-0.0000246 0.0000033 0.0000102-0.0000147
           dy -0.0000175 0.0000040 0.0000032 0.0000069-0.0000000-0.0000092
           dz  0.0000279 0.0000008-0.0000080 0.0000083 0.0000029-0.0000029
  17 c     dx -0.0001690-0.0000789-0.0002552 0.0000054-0.0000007 0.0000153
           dy -0.0000574-0.0002250 0.0002149 0.0000126 0.0000366-0.0000761
           dz -0.0001567 0.0005176 0.0000967-0.0000262-0.0000758 0.0000587
  18 h     dx  0.0001719-0.0000691 0.0003564-0.0000237 0.0000243-0.0000171
           dy -0.0002629-0.0002785 0.0001115 0.0000771 0.0001238-0.0000829
           dz  0.0004536-0.0000524-0.0003003 0.0000244 0.0000514-0.0000599
  19 c     dx  0.0001407-0.0000415 0.0002093 0.0000314-0.0000495 0.0000538
           dy  0.0000384 0.0000532-0.0000774 0.0000028-0.0000182 0.0000471
           dz -0.0000683 0.0000961-0.0000780-0.0000186-0.0000748 0.0000493
  20 h     dx -0.0001578-0.0000987-0.0001664 0.0000113 0.0000681-0.0000364
           dy  0.0001048 0.0000389 0.0002055 0.0000021 0.0000210-0.0000260
           dz  0.0000715-0.0000756 0.0001002 0.0000037 0.0000728-0.0000823
  21 c     dx -0.0001058-0.0000588-0.0001207 0.0000055 0.0000363-0.0000231
           dy -0.0000167 0.0000512-0.0000131-0.0000236-0.0000374 0.0000226
           dz  0.0000149 0.0000458-0.0000242-0.0000007-0.0000213 0.0000289
  22 h     dx -0.0000085 0.0000119 0.0000292-0.0000007-0.0000038-0.0000032
           dy  0.0000091-0.0000109-0.0000238 0.0000048 0.0000002 0.0000087
           dz -0.0000113 0.0000015 0.0000092 0.0000008 0.0000057-0.0000085
  23 c     dx  0.0000125-0.0000335-0.0000091 0.0000092 0.0000191-0.0000140
           dy  0.0000075-0.0000510-0.0000834 0.0000006 0.0000119 0.0000020
           dz  0.0000029 0.0000079 0.0000050-0.0000010-0.0000020-0.0000004
  24 h     dx -0.0000080-0.0000081-0.0000119 0.0000008 0.0000039-0.0000040
           dy -0.0000020-0.0000196-0.0000323-0.0000003 0.0000117-0.0000024
           dz  0.0000048-0.0000093 0.0000072 0.0000017 0.0000031-0.0000036

   ATOM              5 c                           6 h 
                  dx        dy        dz        dx        dy        dz
   5 c     dx  0.7100636
           dy -0.1109235 0.1564426
           dz -0.0088638 0.0162092 0.6620671
   6 h     dx -0.3150181 0.0551618 0.0434469 0.3346879
           dy  0.0550929-0.0475549-0.0092357-0.0612107 0.0378505
           dz  0.0434400-0.0092470-0.0666887-0.0469602 0.0102263 0.0663049
   7 c     dx -0.1487825 0.0175212 0.0343485-0.0067421 0.0027788 0.0304471
           dy  0.0191904-0.0658540-0.0126487 0.0018468 0.0023600-0.0060109
           dz  0.0963239-0.0251528-0.3083182-0.0008103 0.0001159 0.0000893
   8 h     dx  0.0106038-0.0012731 0.0099985 0.0006749-0.0009321-0.0005727
           dy -0.0020097 0.0031882-0.0025874-0.0008849-0.0037859 0.0002532
           dz -0.0212421 0.0036433-0.0179817 0.0003475 0.0000441 0.0011697
   9 c     dx -0.0080609 0.0054765 0.0796101 0.0017178 0.0011204 0.0012375
           dy  0.0040549 0.0064198-0.0148292 0.0011308 0.0071404-0.0005644
           dz  0.0367628-0.0067708 0.0137064 0.0022935-0.0007889-0.0056730
  10 h     dx -0.0056107 0.0024914-0.0002016-0.0004618 0.0001819 0.0016015
           dy  0.0025482 0.0068982-0.0001395 0.0001365 0.0002023-0.0003287
           dz  0.0008233-0.0002848 0.0019086-0.0001223 0.0000127-0.0001879
  11 c     dx -0.0013235-0.0015991-0.0108080 0.0006576-0.0002665-0.0003351
           dy -0.0018702-0.0080558 0.0005827-0.0002710-0.0006801 0.0000468
           dz -0.0108561 0.0005388-0.0635284-0.0003340 0.0000495-0.0012649
  12 h     dx  0.0006578-0.0002828-0.0003394-0.0001157-0.0002378 0.0000442
           dy -0.0002937-0.0006805 0.0000550-0.0002374-0.0013048 0.0000331
           dz -0.0003385 0.0000491-0.0012743 0.0000439 0.0000332 0.0001451
  13 h     dx -0.0000039-0.0000104 0.0000008 0.0000085 0.0000109-0.0000017
           dy  0.0000340-0.0000275-0.0000047 0.0000010 0.0000083-0.0000003
           dz -0.0000003 0.0000045 0.0000041-0.0000010-0.0000019 0.0000002
  14 c     dx -0.0000007-0.0000293 0.0000099 0.0000121 0.0000100-0.0000050
           dy  0.0000706-0.0000585-0.0000101 0.0000319 0.0000263-0.0000047
           dz  0.0000054 0.0000143 0.0000493-0.0000045-0.0000026-0.0000047
  15 c     dx -0.0002354 0.0001041 0.0000279 0.0000345 0.0000094-0.0000056
           dy  0.0001296-0.0000772-0.0000071-0.0000575-0.0000292 0.0000091
           dz  0.0000173-0.0000160-0.0000611-0.0000026-0.0000004 0.0000168
  16 h     dx  0.0000143-0.0000337-0.0000090 0.0000399 0.0000263-0.0000078
           dy  0.0000063-0.0000180-0.0000023 0.0000210 0.0000099-0.0000036
           dz -0.0000076 0.0000045-0.0000399-0.0000067-0.0000043-0.0000016
  17 c     dx  0.0000900-0.0002765-0.0000484 0.0000024-0.0000007-0.0000010
           dy -0.0003774-0.0000736 0.0000522 0.0001993 0.0001004-0.0000354
           dz -0.0000462 0.0000540-0.0003365-0.0000120-0.0000093 0.0000055
  18 h     dx -0.0006059 0.0000650 0.0001017-0.0000021-0.0000134-0.0000068
           dy -0.0001519-0.0002624 0.0000279 0.0000713 0.0000617-0.0000090
           dz  0.0001412-0.0000237 0.0002521-0.0000022 0.0000062-0.0000408
  19 c     dx  0.0002389 0.0001836-0.0000305-0.0003906-0.0002119 0.0000604
           dy  0.0003720-0.0002434-0.0000774-0.0001558-0.0000663 0.0000273
           dz -0.0000430-0.0000356 0.0000127 0.0000581 0.0000396-0.0000691
  20 h     dx  0.0002299-0.0003394-0.0000400 0.0001390 0.0000173-0.0000050
           dy  0.0000061-0.0001295-0.0000113-0.0001227-0.0002458 0.0000249
           dz -0.0000454 0.0000411 0.0000030-0.0000015 0.0000038 0.0001077
  21 c     dx -0.0000501-0.0002095 0.0000149 0.0001915 0.0001336-0.0000352
           dy -0.0000937-0.0000026 0.0000292 0.0000149 0.0000148-0.0000044
           dz  0.0000276 0.0000303 0.0000096-0.0000323-0.0000213-0.0000184
  22 h     dx -0.0000173 0.0000252 0.0000017-0.0000028-0.0000102 0.0000017
           dy  0.0000610 0.0000010-0.0000103-0.0000202-0.0000119 0.0000050
           dz -0.0000019-0.0000034-0.0000088 0.0000032 0.0000024 0.0000088
  23 c     dx  0.0000480-0.0000094-0.0000173-0.0000059 0.0000022 0.0000024
           dy  0.0000494-0.0000667-0.0000188 0.0000284 0.0000282-0.0000046
           dz -0.0000068 0.0000180-0.0000070-0.0000002-0.0000026 0.0000037
  24 h     dx -0.0000024-0.0000173 0.0000004 0.0000199 0.0000133-0.0000030
           dy  0.0000062-0.0000335-0.0000010 0.0000196 0.0000235-0.0000033
           dz  0.0000003 0.0000052 0.0000019-0.0000032-0.0000033 0.0000039

   ATOM              7 c                           8 h 
                  dx        dy        dz        dx        dy        dz
   7 c     dx  0.6704102
           dy -0.1032091 0.1538575
           dz  0.0386221 0.0064546 0.7044948
   8 h     dx -0.1666067 0.0224626-0.1331913 0.1740448
           dy  0.0225633-0.0403715 0.0220365-0.0258805 0.0299415
           dz -0.1332462 0.0218536-0.2232522 0.1439727-0.0234531 0.2355185
   9 c     dx -0.3179882 0.0497681 0.0013857-0.0143050 0.0033837 0.0051789
           dy  0.0512785-0.0711454-0.0023211 0.0026940 0.0021667-0.0008757
           dz  0.0634883-0.0142675-0.1327660-0.0260875 0.0052139 0.0077641
  10 h     dx -0.0054733 0.0022799 0.0307144 0.0010278-0.0009594-0.0005060
           dy  0.0015628 0.0022402-0.0059806-0.0009480-0.0037026 0.0001918
           dz -0.0005601 0.0000236-0.0011835 0.0004050 0.0000261 0.0008035
  11 c     dx -0.0419515 0.0091388-0.0172712-0.0049958 0.0023935 0.0016067
           dy  0.0076573 0.0062087 0.0046475 0.0024732 0.0068926-0.0004603
           dz -0.0600055 0.0128809 0.0475649 0.0026275-0.0006794 0.0012743
  12 h     dx -0.0001495 0.0013641-0.0041615-0.0008850 0.0002206 0.0003717
           dy  0.0013901 0.0071561 0.0005196 0.0001789 0.0002062-0.0000641
           dz -0.0031400 0.0003107-0.0037837-0.0013588 0.0002575 0.0002444
  13 h     dx  0.0000047-0.0000085 0.0000073-0.0000008 0.0000066 0.0000026
           dy  0.0000212-0.0000214 0.0000305-0.0000007 0.0000076-0.0000010
           dz -0.0000070 0.0000084-0.0000029-0.0000047-0.0000044-0.0000015
  14 c     dx  0.0000010 0.0000216 0.0000347-0.0000098-0.0000124-0.0000019
           dy  0.0000109-0.0000507 0.0000658 0.0000105 0.0000255 0.0000156
           dz -0.0000121 0.0000406-0.0000149 0.0000024-0.0000035-0.0000045
  15 c     dx -0.0000747 0.0001042-0.0000782-0.0000288-0.0000308 0.0000038
           dy  0.0000294 0.0000102 0.0001201-0.0000284-0.0000255-0.0000323
           dz  0.0000280-0.0000434 0.0000386 0.0000289 0.0000182 0.0000068
  16 h     dx  0.0000041-0.0000126 0.0000192 0.0000061 0.0000106 0.0000138
           dy -0.0000152 0.0000007 0.0000017 0.0000094 0.0000003 0.0000066
           dz -0.0000311 0.0000011-0.0000040-0.0000108-0.0000059-0.0000040
  17 c     dx -0.0000060-0.0002230 0.0002932 0.0000069 0.0000140-0.0000074
           dy -0.0001260-0.0002752-0.0001813 0.0000537 0.0000589 0.0000844
           dz  0.0002112-0.0004382-0.0000264 0.0000335 0.0000650 0.0000394
  18 h     dx -0.0001691-0.0000732-0.0004085-0.0000240 0.0000135 0.0000136
           dy -0.0002681-0.0003200-0.0000270 0.0000911 0.0001118 0.0000486
           dz -0.0005084 0.0000601-0.0000451-0.0000278-0.0000485-0.0000469
  19 c     dx  0.0000478-0.0000458-0.0002391 0.0000202-0.0000294-0.0000512
           dy  0.0000639 0.0000276 0.0000682-0.0000062-0.0000104-0.0000464
           dz  0.0000240-0.0000984-0.0000174 0.0000346 0.0000958 0.0000663
  20 h     dx -0.0000801-0.0000982 0.0002266 0.0000156 0.0000462 0.0000091
           dy  0.0000267 0.0000543-0.0002154 0.0000099 0.0000193 0.0000206
           dz -0.0000035 0.0001246 0.0000687-0.0000409-0.0000993-0.0000922
  21 c     dx -0.0000547-0.0000762 0.0001410 0.0000178 0.0000449 0.0000319
           dy -0.0000107 0.0000583 0.0000163-0.0000350-0.0000421-0.0000152
           dz  0.0000026-0.0000261-0.0000550 0.0000136 0.0000151 0.0000214
  22 h     dx -0.0000138 0.0000113-0.0000221-0.0000007-0.0000051 0.0000011
           dy  0.0000161-0.0000077 0.0000237 0.0000008-0.0000016-0.0000119
           dz  0.0000180-0.0000044 0.0000144-0.0000041-0.0000048-0.0000076
  23 c     dx  0.0000119-0.0000268 0.0000136 0.0000149 0.0000188 0.0000108
           dy  0.0000496-0.0000559 0.0000718 0.0000004 0.0000105-0.0000041
           dz -0.0000059 0.0000090-0.0000004-0.0000038-0.0000073-0.0000049
  24 h     dx -0.0000025-0.0000045 0.0000157 0.0000014 0.0000027 0.0000029
           dy  0.0000090-0.0000189 0.0000308 0.0000004 0.0000120 0.0000028
           dz -0.0000007 0.0000156 0.0000022-0.0000040-0.0000059-0.0000041

   ATOM              9 c                          10 h 
                  dx        dy        dz        dx        dy        dz
   9 c     dx  0.6495074
           dy -0.1000357 0.1530871
           dz -0.0214709 0.0188566 0.7248524
  10 h     dx -0.0903409 0.0123497 0.0875833 0.0916814
           dy  0.0123397-0.0392438-0.0225482-0.0148084 0.0287970
           dz  0.0875855-0.0227553-0.3004108-0.0945874 0.0247367 0.3189054
  11 c     dx -0.2060532 0.0245362-0.1311446 0.0109899-0.0013679 0.0111770
           dy  0.0261704-0.0659571 0.0201675-0.0020758 0.0031209-0.0026480
           dz -0.0692469 0.0085571-0.2498840-0.0201163 0.0032381-0.0183929
  12 h     dx -0.0151404 0.0035828 0.0061484 0.0008001-0.0009150-0.0002388
           dy  0.0027354 0.0022305-0.0009700-0.0008793-0.0037730 0.0001549
           dz -0.0251193 0.0049504 0.0085957 0.0006975-0.0000023 0.0010486
  13 h     dx -0.0000060-0.0000035 0.0000116 0.0000024 0.0000029-0.0000016
           dy -0.0000150-0.0000136 0.0000408 0.0000010 0.0000030-0.0000067
           dz -0.0000033 0.0000176-0.0000002 0.0000004-0.0000066-0.0000043
  14 c     dx  0.0000134 0.0000385 0.0000264-0.0000015-0.0000187-0.0000149
           dy -0.0000527 0.0000026 0.0000020 0.0000039-0.0000280-0.0000236
           dz  0.0000295 0.0000381-0.0000365 0.0000009 0.0000095 0.0000116
  15 c     dx  0.0000870 0.0000508-0.0000805 0.0000248 0.0000044 0.0000373
           dy -0.0000250 0.0000557 0.0001224 0.0000063-0.0000051-0.0000178
           dz -0.0000388-0.0000758-0.0000000-0.0000006 0.0000458 0.0000201
  16 h     dx -0.0000216 0.0000225-0.0000037-0.0000048-0.0000301-0.0000243
           dy -0.0000032 0.0000435-0.0000540-0.0000052-0.0000123-0.0000066
           dz -0.0000054 0.0000161 0.0000288-0.0000038-0.0000286-0.0000227
  17 c     dx -0.0002748 0.0001167-0.0000499 0.0000148-0.0000227-0.0000227
           dy -0.0001049-0.0000844-0.0003218-0.0000032-0.0000229 0.0000210
           dz -0.0001835-0.0005360 0.0002160-0.0000055 0.0000863 0.0000601
  18 h     dx  0.0004145-0.0001005 0.0001503-0.0000233 0.0000537 0.0000339
           dy -0.0000834-0.0005402-0.0003337 0.0000042 0.0001624 0.0000919
           dz  0.0002246-0.0000540-0.0003458 0.0000063-0.0000858-0.0000865
  19 c     dx -0.0001504-0.0001029 0.0000007-0.0000454 0.0000617 0.0000520
           dy  0.0001060-0.0001573 0.0002542-0.0000178 0.0000261-0.0000006
           dz -0.0001396 0.0000200 0.0000095-0.0000068 0.0000161 0.0000059
  20 h     dx -0.0000023 0.0000180 0.0000238 0.0000141-0.0000145-0.0000282
           dy  0.0000588 0.0000014 0.0000070-0.0000230-0.0000023 0.0000148
           dz  0.0002263-0.0000090-0.0000438 0.0000084-0.0000032 0.0000014
  21 c     dx -0.0000476 0.0000572-0.0000443 0.0000124-0.0000036-0.0000181
           dy  0.0000738 0.0000239 0.0000211 0.0000072 0.0000100 0.0000117
           dz -0.0000651 0.0000528-0.0000129-0.0000103-0.0000039-0.0000022
  22 h     dx  0.0000098 0.0000133-0.0000203-0.0000029-0.0000080-0.0000007
           dy -0.0000082-0.0000208 0.0000345-0.0000003 0.0000080 0.0000017
           dz -0.0000005-0.0000007-0.0000055 0.0000045-0.0000044-0.0000032
  23 c     dx -0.0000570-0.0000129-0.0000242-0.0000029-0.0000138-0.0000114
           dy -0.0000414-0.0000273 0.0000491 0.0000095 0.0000061-0.0000050
           dz  0.0000188-0.0000003-0.0000027-0.0000027 0.0000031 0.0000024
  24 h     dx  0.0000010 0.0000042-0.0000028 0.0000010-0.0000048-0.0000042
           dy -0.0000089-0.0000107 0.0000206 0.0000051 0.0000068-0.0000024
           dz  0.0000192-0.0000088 0.0000048 0.0000013-0.0000018-0.0000007

   ATOM             11 c                          12 h 
                  dx        dy        dz        dx        dy        dz
  11 c     dx  0.7103505
           dy -0.1113655 0.1559100
           dz -0.0090689 0.0162936 0.6610791
  12 h     dx -0.3158072 0.0544912 0.0435776 0.3354020
           dy  0.0544406-0.0471698-0.0091295-0.0604052 0.0373452
           dz  0.0435732-0.0091366-0.0667055-0.0470760 0.0101010 0.0663514
  13 h     dx -0.0000040-0.0000078 0.0000029 0.0000017 0.0000058 0.0000004
           dy -0.0000473-0.0000096 0.0000094 0.0000088-0.0000012-0.0000012
           dz  0.0000051 0.0000017 0.0000129-0.0000001-0.0000011 0.0000027
  14 c     dx -0.0000435 0.0000043 0.0000291 0.0000229-0.0000472-0.0000049
           dy  0.0000184 0.0000508-0.0000125 0.0000258-0.0000365-0.0000057
           dz  0.0000152-0.0000012 0.0000437-0.0000068 0.0000100-0.0000090
  15 c     dx  0.0002288-0.0000323-0.0000365-0.0000766 0.0001065 0.0000138
           dy -0.0001320 0.0000296 0.0000331 0.0000136-0.0000077-0.0000036
           dz -0.0000344 0.0000020-0.0000279 0.0000081-0.0000128-0.0000129
  16 h     dx  0.0000118 0.0000346-0.0000035 0.0000326-0.0000590-0.0000020
           dy  0.0000368 0.0000726-0.0000072 0.0000240-0.0000549-0.0000041
           dz -0.0000063-0.0000023-0.0000100-0.0000003 0.0000065 0.0000219
  17 c     dx  0.0000877 0.0003795-0.0001151 0.0000525-0.0000913-0.0000078
           dy  0.0003694 0.0002367-0.0000890 0.0000050-0.0000733-0.0000009
           dz -0.0001618-0.0000989-0.0005816-0.0000060 0.0000180 0.0000158
  18 h     dx -0.0002363-0.0000149 0.0001499-0.0001003 0.0001464 0.0000151
           dy  0.0002682-0.0008466-0.0000924-0.0000659 0.0001614 0.0000132
           dz  0.0001600 0.0000128 0.0005296 0.0000130-0.0000265-0.0000362
  19 c     dx -0.0002938 0.0001308 0.0000361-0.0000365 0.0000442 0.0000059
           dy -0.0003224-0.0002972 0.0000847-0.0000136 0.0000455 0.0000040
           dz  0.0000769-0.0000202 0.0001078 0.0000084-0.0000068 0.0000099
  20 h     dx  0.0000931-0.0000310-0.0000273 0.0000319-0.0000226-0.0000076
           dy -0.0000256-0.0001053 0.0000049-0.0000095 0.0000164 0.0000014
           dz -0.0000414 0.0000033-0.0001456-0.0000092 0.0000031-0.0000178
  21 c     dx  0.0001455 0.0000527-0.0000115 0.0000250-0.0000293-0.0000041
           dy  0.0000065-0.0000331 0.0000122-0.0000209 0.0000285 0.0000031
           dz  0.0000033-0.0000079 0.0001163-0.0000014 0.0000029 0.0000040
  22 h     dx  0.0000204 0.0000157-0.0000038-0.0000003-0.0000096-0.0000000
           dy -0.0000537-0.0000314 0.0000086-0.0000028 0.0000112 0.0000002
           dz -0.0000005-0.0000016-0.0000013-0.0000002 0.0000009-0.0000007
  23 c     dx  0.0000070 0.0000407-0.0000128 0.0000160-0.0000207-0.0000027
           dy -0.0000235-0.0000160 0.0000064 0.0000048 0.0000109 0.0000006
           dz -0.0000037-0.0000109-0.0000234-0.0000026 0.0000027 0.0000007
  24 h     dx  0.0000112 0.0000069-0.0000035 0.0000055-0.0000104-0.0000008
           dy -0.0000092-0.0000126 0.0000013 0.0000032 0.0000087-0.0000004
           dz -0.0000041-0.0000025-0.0000182-0.0000009 0.0000011 0.0000005

   ATOM             13 h                          14 c 
                  dx        dy        dz        dx        dy        dz
  13 h     dx  0.2312278
           dy  0.1418478 0.1743641
           dz -0.0377893-0.0284443 0.0319670
  14 c     dx -0.2191165-0.1310228 0.0340005 0.6903139
           dy -0.1309710-0.1665515 0.0259737 0.0311832 0.6867699
           dz  0.0339954 0.0259875-0.0409329-0.0863656-0.0312136 0.1416178
  15 c     dx  0.0073381-0.0265800 0.0004131-0.1303903 0.0638705 0.0079250
           dy  0.0049463-0.0144291 0.0000218 0.0015348-0.3276717 0.0125737
           dz -0.0010836 0.0047647 0.0016208 0.0108791 0.0032196-0.0597192
  16 h     dx  0.0007293 0.0004109-0.0006860-0.0012402-0.0006200 0.0004791
           dy -0.0005889 0.0012043-0.0001426 0.0309351-0.0062413-0.0042766
           dz -0.0006380-0.0002939-0.0035835-0.0010170 0.0004708 0.0018751
  17 c     dx  0.0014842 0.0027513 0.0008063 0.0467343-0.0616070-0.0030932
           dy  0.0016067-0.0056174 0.0003907-0.0186142-0.0420655 0.0051064
           dz  0.0008608 0.0002187 0.0075741-0.0051249 0.0115889 0.0070670
  18 h     dx  0.0002228-0.0013968 0.0000578-0.0036010-0.0029541 0.0018219
           dy  0.0003418-0.0007521-0.0000073-0.0036004-0.0002098 0.0009025
           dz -0.0000242 0.0002569 0.0001593 0.0018583 0.0008126 0.0072044
  19 c     dx -0.0000674 0.0010413-0.0001393-0.0254814 0.0321126 0.0009912
           dy  0.0010140-0.0005022-0.0001629 0.0325830-0.0395808-0.0034002
           dz -0.0001364-0.0001643-0.0006295 0.0009712-0.0033246-0.0086068
  20 h     dx -0.0000140-0.0001370-0.0002040-0.0001153 0.0010197-0.0000927
           dy -0.0001152 0.0000554-0.0000507 0.0009764-0.0004635-0.0001515
           dz -0.0002050-0.0000494-0.0013799-0.0000957-0.0001559-0.0004148
  21 c     dx -0.0041133 0.0027831 0.0016203-0.0538594 0.0034018 0.0090091
           dy  0.0039224 0.0001948-0.0002412-0.0404109 0.0593268 0.0035986
           dz  0.0015646-0.0000699 0.0072955 0.0110825-0.0030084 0.0054438
  22 h     dx -0.0010720 0.0006363 0.0001733-0.0017151-0.0044986 0.0015948
           dy -0.0011035 0.0003837 0.0001615-0.0033528-0.0021446 0.0009581
           dz  0.0002554-0.0001009 0.0002437 0.0015412 0.0011334 0.0071831
  23 c     dx -0.0176848 0.0103363 0.0024374-0.3017317 0.0383100 0.0349798
           dy -0.0212153 0.0108695 0.0027634 0.1007541-0.1533427-0.0106833
           dz  0.0039394-0.0019894 0.0012826 0.0320001-0.0012920-0.0625602
  24 h     dx  0.0010656-0.0006592-0.0006928 0.0002563 0.0306494-0.0012449
           dy  0.0003262 0.0008642-0.0002676-0.0009090-0.0076979 0.0005811
           dz -0.0007401-0.0001187-0.0036273 0.0002566-0.0041708 0.0018158

   ATOM             15 c                          16 h 
                  dx        dy        dz        dx        dy        dz
  15 c     dx  0.7094377
           dy -0.0273097 0.6685807
           dz -0.0861656-0.0214928 0.1431798
  16 h     dx -0.2921259 0.0915182 0.0343662 0.3105025
           dy  0.0914254-0.0949176-0.0109399-0.0991084 0.0967363
           dz  0.0343759-0.0109510-0.0397970-0.0382926 0.0115218 0.0303085
  17 c     dx -0.2462479-0.0676376 0.0310294-0.0183421-0.0196728 0.0041036
           dy -0.1299327-0.2095542 0.0265996 0.0116393 0.0114402-0.0021663
           dz  0.0339529 0.0171899-0.0678367 0.0026263 0.0025559 0.0022112
  18 h     dx  0.0083456-0.0256247 0.0004213 0.0009639 0.0006664-0.0007754
           dy  0.0053339-0.0141915 0.0000150-0.0001933 0.0009179-0.0001974
           dz -0.0010420 0.0046953 0.0030858-0.0007358-0.0003346-0.0038737
  19 c     dx -0.0536861-0.0399074 0.0113909-0.0017463-0.0034126 0.0014868
           dy  0.0029051 0.0595742-0.0028502-0.0044216-0.0021241 0.0011001
           dz  0.0093347 0.0036264 0.0076594 0.0015352 0.0009456 0.0068017
  20 h     dx -0.0041402 0.0038035 0.0014813-0.0011005-0.0011075 0.0002653
           dy  0.0028796 0.0001580-0.0001172 0.0006427 0.0004044-0.0000998
           dz  0.0015345-0.0002505 0.0067109 0.0001840 0.0001644 0.0002779
  21 c     dx -0.0076725-0.0220633 0.0008353 0.0004645-0.0007045-0.0000950
           dy -0.0214190-0.0570406 0.0054912-0.0007293-0.0010306 0.0001416
           dz  0.0008018 0.0055908-0.0093789-0.0000928 0.0001338-0.0003753
  22 h     dx  0.0005059-0.0006846-0.0001165-0.0000798 0.0000655-0.0002100
           dy -0.0007047-0.0010598 0.0001356 0.0000742 0.0001243-0.0000868
           dz -0.0001183 0.0001278-0.0004836-0.0002103-0.0000841-0.0014164
  23 c     dx  0.0139966 0.0802392-0.0049281 0.0020860-0.0001990 0.0008267
           dy  0.0365432-0.0108830-0.0046657 0.0009471-0.0060677 0.0005035
           dz -0.0028491-0.0112499 0.0075452 0.0007740 0.0006778 0.0073615
  24 h     dx -0.0053570 0.0013600 0.0018967-0.0001943 0.0016242-0.0000086
           dy  0.0025288 0.0014803-0.0000875-0.0001100-0.0005251 0.0000537
           dz  0.0018380 0.0000918 0.0073862 0.0000736-0.0002085 0.0002610

   ATOM             17 c                          18 h 
                  dx        dy        dz        dx        dy        dz
  17 c     dx  0.6503221
           dy -0.0155773 0.7374562
           dz -0.0767855-0.0259854 0.1488533
  18 h     dx -0.0659226 0.0431586 0.0021973 0.0656822
           dy  0.0434152-0.3312756 0.0072538-0.0463782 0.3518604
           dz  0.0022120 0.0071975-0.0383658-0.0037133-0.0081838 0.0273492
  19 c     dx -0.3013947 0.1011684 0.0311011 0.0002927-0.0002306 0.0004980
           dy  0.0389049-0.1543163-0.0015815 0.0304951-0.0066161-0.0040999
           dz  0.0340516-0.0109430-0.0678564-0.0009569 0.0005042 0.0035742
  20 h     dx -0.0182238-0.0211608 0.0042120 0.0010504 0.0000664-0.0007831
           dy  0.0099078 0.0109041-0.0018639-0.0007323 0.0006039-0.0001112
           dz  0.0027175 0.0028245 0.0026025-0.0007312-0.0002412-0.0039534
  21 c     dx  0.0141479 0.0370770-0.0027155-0.0053293 0.0019968 0.0017931
           dy  0.0800237-0.0104597-0.0111799 0.0014105 0.0013786 0.0000688
           dz -0.0047707-0.0047031 0.0086205 0.0018288-0.0000304 0.0070321
  22 h     dx  0.0020724 0.0009730 0.0007783-0.0002084-0.0001525 0.0000678
           dy -0.0001660-0.0061730 0.0006726 0.0016229-0.0003613-0.0002140
           dz  0.0008340 0.0005050 0.0074074-0.0000142 0.0000500 0.0002001
  23 c     dx -0.0630400-0.0100225 0.0088386-0.0012044-0.0002985 0.0000738
           dy -0.0100578-0.0006713 0.0012041-0.0003110 0.0007261-0.0000289
           dz  0.0088313 0.0011966-0.0088855 0.0000750-0.0000240-0.0008342
  24 h     dx -0.0012631-0.0003237 0.0000570 0.0001180 0.0000120-0.0002114
           dy -0.0003300 0.0007157-0.0000321 0.0000278-0.0000479-0.0000619
           dz  0.0000585-0.0000360-0.0009938-0.0002136-0.0000574-0.0012464

   ATOM             19 c                          20 h 
                  dx        dy        dz        dx        dy        dz
  19 c     dx  0.6901299
           dy  0.0311269 0.6892915
           dz -0.0856571-0.0310542 0.1455762
  20 h     dx -0.2184607-0.1315278 0.0336906 0.2308400
           dy -0.1322004-0.1676839 0.0261301 0.1429757 0.1758685
           dz  0.0336969 0.0260036-0.0420638-0.0376258-0.0286066 0.0323481
  21 c     dx -0.1306745 0.0639234 0.0077898 0.0074660-0.0261265 0.0004275
           dy  0.0015540-0.3284813 0.0125299 0.0051601-0.0143966 0.0000049
           dz  0.0107455 0.0031872-0.0608058-0.0010656 0.0047045 0.0019343
  22 h     dx -0.0012544-0.0005408 0.0005047 0.0007314 0.0003946-0.0006935
           dy  0.0309853-0.0060355-0.0042778-0.0006249 0.0011957-0.0001395
           dz -0.0009905 0.0004553 0.0020531-0.0006430-0.0002915-0.0036416
  23 c     dx  0.0465304-0.0615973-0.0030847 0.0014692 0.0027013 0.0007834
           dy -0.0180261-0.0424494 0.0050170 0.0016226-0.0054042 0.0003725
           dz -0.0051406 0.0115713 0.0068122 0.0008330 0.0002039 0.0074210
  24 h     dx -0.0035641-0.0029376 0.0018401 0.0002340-0.0013514 0.0000649
           dy -0.0041177-0.0002823 0.0010000 0.0003617-0.0009083 0.0000007
           dz  0.0018962 0.0008226 0.0074050-0.0000170 0.0002561 0.0002275

   ATOM             21 c                          22 h 
                  dx        dy        dz        dx        dy        dz
  21 c     dx  0.7092241
           dy -0.0280483 0.6683630
           dz -0.0862465-0.0214681 0.1419423
  22 h     dx -0.2922658 0.0912806 0.0344193 0.3105234
           dy  0.0913800-0.0948690-0.0108900-0.0989936 0.0967090
           dz  0.0344100-0.0108691-0.0394187-0.0382759 0.0114790 0.0301770
  23 c     dx -0.2459187-0.0673230 0.0315566-0.0181897-0.0197564 0.0039491
           dy -0.1297552-0.2074944 0.0266665 0.0118056 0.0113386-0.0022285
           dz  0.0345070 0.0172727-0.0638944 0.0024464 0.0025212 0.0013033
  24 h     dx  0.0083524-0.0253965 0.0001862 0.0009571 0.0006551-0.0007347
           dy  0.0061510-0.0155828-0.0001110-0.0003332 0.0009704-0.0001724
           dz -0.0013114 0.0046389 0.0015703-0.0006873-0.0003205-0.0035968

   ATOM             23 c                          24 h 
                  dx        dy        dz        dx        dy        dz
  23 c     dx  0.6492728
           dy -0.0153694 0.7293715
           dz -0.0780801-0.0262626 0.1394623
  24 h     dx -0.0656057 0.0430282 0.0026729 0.0649718
           dy  0.0430394-0.3258276 0.0073498-0.0466488 0.3468774
           dz  0.0026708 0.0073493-0.0349854-0.0038228-0.0082511 0.0257825
 

   *** projected hessian written onto $hessian (projected), file=<hessian> ***

 dipole moment in principle axis system (a.u.) :
     0.0029756985    -0.1808639840    -0.0050925381
 norm :  0.180960132197276     

 rotational constants b for rotations around axis of inertia
 and optical intensities for (1 <-- 0) transition

   b   :     0.0148409798     0.0640683181     0.0137932996   (cm**(-1))
   b   :         444.9214        1920.7199         413.5127     (MHz)
  int. :     0.0000088548     0.0327117807     0.0000259339     (a.u.)

   x   :     0.9880153211     0.0323239518     0.1509333875
   y   :    -0.0361273411     0.9990933166     0.0225246538
   z   :    -0.1500684529    -0.0277075250     0.9882872824

   ***  normal modes written onto $vibrational normal modes, file=<vib_normal_modes>  ***

 keyword $vibrational reduced masses missing in file <control>


   ***  vibrational spectroscopic data written onto$vibrational spectrum   
        file=<vibspectrum>  ***

          ---------------------------------------------------
          NORMAL MODES and VIBRATIONAL FREQUENCIES (cm**(-1))
          ---------------------------------------------------

 imaginary wave numbers indicate a negative curvature of the energy surface.
 zero frequency modes have no physical meaning except being generators of
 translations and rotations. each vibrational normal mode - given in terms of
 cartesian displacement vectors of all atoms - has been normalized to unity.
 to obtain mass-weigthed normal coordinates in a.u. divide the tabulated
 modes by sqrt(reduced mass * 1822.88853).
 band intensities or cross sections refer to independent non-degenerate normal
 modes, that is, the intensities of degenerate modes have yet to be added.
 dDIP/dQ is the normal mode derivative of the dipole moment.


       mode               1        2        3        4        5        6

     frequency           0.00     0.00     0.00     0.00     0.00     0.00

     symmetry                                                             

        IR                -        -        -        -        -        - 
|dDIP/dQ|   (a.u.)     0.0000   0.0000   0.0000   0.0000   0.0000   0.0000
intensity (km/mol)       0.00     0.00     0.00     0.00     0.00     0.00
intensity (  %   )       0.00     0.00     0.00     0.00     0.00     0.00
 
       RAMAN              -        -        -        -        -        - 
 
  1   h           x   0.30569 -0.04719  0.17357 -0.01664  0.04178  0.03552
                  y  -0.00169 -0.06392  0.11326  0.16639  0.06944 -0.13360
                  z  -0.13974  0.25774  0.05237  0.12932  0.04066 -0.11439
  2   c           x   0.22453 -0.00789  0.18032  0.01528 -0.01928  0.02388
                  y  -0.02682 -0.08615  0.10554  0.12606  0.07069 -0.08019
                  z  -0.07671  0.22299  0.04592  0.09836  0.09055 -0.09834
  3   c           x   0.23681 -0.01989  0.17691 -0.00834  0.00422  0.02668
                  y  -0.07167 -0.08663  0.09951  0.05946  0.10579 -0.09679
                  z   0.04774  0.15285  0.03287  0.03671  0.18811 -0.06253
  4   h           x   0.32748 -0.06853  0.16750 -0.05867  0.08356  0.04049
                  y  -0.08143 -0.06477  0.10253  0.04795  0.13185 -0.16311
                  z   0.08156  0.13299  0.02915  0.01969  0.21412 -0.05067
  5   c           x   0.13238  0.03057  0.18556  0.03244 -0.07411  0.01172
                  y  -0.10392 -0.11518  0.08960  0.00772  0.10736 -0.02817
                  z   0.12859  0.10816  0.02457 -0.00305  0.25203 -0.04163
  6   h           x   0.14190  0.02122  0.18290  0.01399 -0.05579  0.01390
                  y  -0.13883 -0.11555  0.08490 -0.04412  0.13469 -0.04109
                  z   0.22548  0.05352  0.01440 -0.05105  0.32796 -0.01368
  7   c           x   0.01555  0.09302  0.19759  0.09661 -0.17583 -0.00605
                  y  -0.09133 -0.14326  0.08572  0.02258  0.07385  0.05705
                  z   0.08500  0.13351  0.02931  0.01881  0.21835 -0.05625
  8   h           x  -0.06601  0.13227  0.20428  0.12795 -0.23662 -0.01770
                  y  -0.11640 -0.16549  0.07801 -0.01764  0.07505  0.11047
                  z   0.14781  0.09859  0.02282 -0.01215  0.26789 -0.03948
  9   c           x   0.00326  0.10503  0.20100  0.12023 -0.19933 -0.00885
                  y  -0.04649 -0.14279  0.09175  0.08917  0.03875  0.07365
                  z  -0.03944  0.20364  0.04236  0.08045  0.12080 -0.09205
 10   h           x  -0.08785  0.15363  0.21035  0.17000 -0.27844 -0.02269
                  y  -0.03667 -0.16465  0.08873  0.10078  0.01264  0.14000
                  z  -0.07347  0.22333  0.04604  0.09748  0.09444 -0.10318
 11   c           x   0.10780  0.05458  0.19237  0.07963 -0.12108  0.00611
                  y  -0.01425 -0.11423  0.10166  0.14090  0.03718  0.00503
                  z  -0.12027  0.24841  0.05068  0.12023  0.05694 -0.11317
 12   h           x   0.09816  0.06392  0.19501  0.09790 -0.13932  0.00393
                  y   0.02068 -0.11386  0.10636  0.19278  0.00984  0.01796
                  z  -0.21722  0.30299  0.06084  0.16823 -0.01909 -0.14090
 13   h           x  -0.14401  0.03785  0.15870 -0.25124  0.01572 -0.00619
                  y   0.01146 -0.11681  0.10456  0.17870  0.01467  0.02268
                  z  -0.21034  0.12940  0.02435  0.10784 -0.11956  0.31498
 14   c           x  -0.10651  0.03328  0.16093 -0.22384  0.01195 -0.00315
                  y  -0.01613 -0.11673  0.10092  0.13777  0.03658  0.01140
                  z  -0.13147  0.10564  0.02044  0.07572 -0.04482  0.28231
 15   c           x  -0.05718  0.03763  0.16795 -0.15569 -0.01738 -0.00092
                  y  -0.00863 -0.11505  0.10224  0.14913  0.03205  0.00960
                  z  -0.14836  0.14784  0.02910  0.09506 -0.03768  0.19007
 16   h           x  -0.05627  0.04560  0.17119 -0.12999 -0.03647 -0.00223
                  y   0.02483 -0.11382  0.10692  0.19894  0.00659  0.01950
                  z  -0.24045  0.20450  0.03976  0.14228 -0.10691  0.15085
 17   c           x  -0.00900  0.03178  0.17083 -0.12044 -0.02226  0.00299
                  y  -0.04402 -0.11494  0.09758  0.09663  0.06015 -0.00487
                  z  -0.04720  0.11741  0.02409  0.05387  0.05821  0.14803
 18   h           x   0.02935  0.03518  0.17629 -0.06742 -0.04509  0.00472
                  y  -0.03827 -0.11365  0.09859  0.10534  0.05669 -0.00626
                  z  -0.06011  0.15012  0.03080  0.06881  0.06395  0.07631
 19   c           x  -0.01023  0.02157  0.16668 -0.15348  0.00225  0.00467
                  y  -0.08696 -0.11652  0.09158  0.03271  0.09282 -0.01756
                  z   0.07098  0.04467  0.01039 -0.00673  0.14702  0.19843
 20   h           x   0.02734  0.01705  0.16894 -0.12587 -0.00165  0.00771
                  y  -0.11444 -0.11644  0.08795 -0.00806  0.11464 -0.02879
                  z   0.14956  0.02115  0.00653 -0.03868  0.22157  0.16549
 21   c           x  -0.05950  0.01720  0.15966 -0.22161  0.03159  0.00245
                  y  -0.09452 -0.11820  0.09024  0.02125  0.09740 -0.01579
                  z   0.08805  0.00240  0.00172 -0.02615  0.14003  0.29066
 22   h           x  -0.06041  0.00924  0.15642 -0.24729  0.05066  0.00376
                  y  -0.12799 -0.11943  0.08557 -0.02857  0.12285 -0.02567
                  z   0.18015 -0.05427 -0.00894 -0.07337  0.20927  0.32986
 23   c           x  -0.10768  0.02306  0.15678 -0.25681  0.03644 -0.00146
                  y  -0.05909 -0.11831  0.09492  0.07381  0.06926 -0.00130
                  z  -0.01322  0.03289  0.00675  0.01509  0.04407  0.33264
 24   h           x  -0.14607  0.01967  0.15132 -0.30988  0.05929 -0.00319
                  y  -0.06496 -0.11962  0.09388  0.06493  0.07281  0.00009
                  z   0.00000  0.00000  0.00000  0.00000  0.03857  0.40447

reduced mass(g/mol)     4.506    5.941    6.484    5.577    5.211    5.846


       mode               7        8        9       10       11       12

     frequency           2.13     7.94    28.61    51.06    56.59    57.37

     symmetry            a        a        a        a        a        a   

        IR               YES      YES      YES      YES      YES      YES
|dDIP/dQ|   (a.u.)     0.0002   0.0000   0.0001   0.0002   0.0002   0.0002
intensity (km/mol)       0.05     0.00     0.02     0.10     0.09     0.06
intensity (  %   )       0.04     0.00     0.01     0.08     0.07     0.04
 
       RAMAN             YES      YES      YES      YES      YES      YES
 
  1   h           x   0.04447  0.15129 -0.06185 -0.01483 -0.05208  0.02094
                  y   0.24282 -0.07134 -0.12084 -0.31161 -0.31266 -0.17825
                  z   0.00738 -0.12161  0.01247  0.01629  0.06912 -0.00581
  2   c           x   0.02549  0.08573 -0.05127 -0.00471 -0.02344  0.03831
                  y   0.13274 -0.03981 -0.07010 -0.25783 -0.16389 -0.09105
                  z   0.00938 -0.06436  0.01005  0.01453  0.06412 -0.00926
  3   c           x   0.02498  0.10571 -0.02823  0.00279 -0.02200  0.08532
                  y   0.13148 -0.03776  0.05085 -0.21916 -0.15816  0.15544
                  z   0.00604  0.05095  0.00468  0.01334  0.06340 -0.01835
  4   h           x   0.04344  0.18674 -0.02099 -0.00159 -0.05031  0.10540
                  y   0.24108 -0.06710  0.09448 -0.24226 -0.30290  0.26413
                  z   0.00130  0.08325  0.00279  0.01426  0.06813 -0.02240
  5   c           x   0.00056  0.02146 -0.01453  0.01505  0.01450  0.10826
                  y  -0.00846  0.00152  0.11283 -0.15440  0.03072  0.26570
                  z   0.00816  0.12455  0.00160  0.01143  0.05763 -0.02286
  6   h           x  -0.00002  0.03699  0.00262  0.02097  0.01551  0.14537
                  y  -0.00929  0.00263  0.20315 -0.12379  0.03567  0.45830
                  z   0.00567  0.21474 -0.00247  0.01051  0.05777 -0.03003
  7   c           x  -0.02313 -0.08254 -0.02328  0.01955  0.05002  0.08483
                  y  -0.14699  0.03955  0.05770 -0.13344  0.21420  0.13187
                  z   0.01274  0.08314  0.00386  0.01097  0.05307 -0.01840
  8   h           x  -0.04249 -0.14806 -0.01211  0.02856  0.07992  0.10461
                  y  -0.25738  0.07000  0.10663 -0.08861  0.36558  0.22169
                  z   0.01327  0.14045  0.00147  0.00968  0.04954 -0.02209
  9   c           x  -0.02201 -0.10233 -0.04638  0.01211  0.04920  0.03772
                  y  -0.14576  0.03864 -0.06351 -0.17262  0.20758 -0.11471
                  z   0.01600 -0.03220  0.00928  0.01229  0.05362 -0.00924
 10   h           x  -0.04051 -0.18328 -0.05312  0.01512  0.07756  0.01999
                  y  -0.25475  0.06919 -0.10919 -0.15911  0.35346 -0.22106
                  z   0.01924 -0.06440  0.01099  0.01204  0.05053 -0.00593
 11   c           x   0.00221 -0.01824 -0.06064  0.00019  0.01226  0.01423
                  y  -0.00582 -0.00136 -0.12846 -0.23296  0.01834 -0.22631
                  z   0.01464 -0.10593  0.01243  0.01399  0.05907 -0.00464
 12   h           x   0.00279 -0.03369 -0.07867 -0.00606  0.01153 -0.02256
                  y  -0.00479 -0.00243 -0.22465 -0.26630  0.01388 -0.42078
                  z   0.01691 -0.19562  0.01666  0.01513  0.05993  0.00246
 13   h           x   0.04571  0.04922 -0.15623  0.02230  0.01143  0.00698
                  y   0.01692  0.00733  0.25126  0.15931 -0.02459 -0.10796
                  z   0.27911  0.29162  0.02930 -0.01132  0.07376 -0.00107
 14   c           x   0.02513  0.02697 -0.07178  0.00880  0.00054 -0.02314
                  y   0.01266  0.00405  0.14438  0.17574 -0.02479 -0.06960
                  z   0.15200  0.15995  0.01344 -0.01193  0.01538  0.00550
 15   c           x  -0.01087  0.02877  0.10012 -0.01862 -0.02681 -0.08362
                  y   0.00179  0.00539  0.17078  0.17086 -0.03267 -0.07862
                  z  -0.06705  0.20433 -0.01852 -0.02192 -0.13659  0.02139
 16   h           x  -0.01815  0.05244  0.14963 -0.02667 -0.03689 -0.10109
                  y  -0.00242  0.00974  0.30053  0.15288 -0.03892 -0.12497
                  z  -0.10974  0.37068 -0.02758 -0.02887 -0.19443  0.02717
 17   c           x  -0.03730  0.00017  0.20888 -0.03466 -0.04030 -0.12166
                  y  -0.00375  0.00116  0.03301  0.18888 -0.03238 -0.02967
                  z  -0.23023  0.03521 -0.03886 -0.02253 -0.20757  0.02941
 18   h           x  -0.06443  0.00162  0.33811 -0.05628 -0.05929 -0.16553
                  y  -0.01185  0.00215  0.05201  0.18328 -0.03749 -0.03622
                  z  -0.39668  0.06943 -0.06316 -0.02968 -0.31464  0.04088
 19   c           x  -0.02777 -0.03021  0.14636 -0.02400 -0.02792 -0.09967
                  y   0.00161 -0.00431 -0.13000  0.21497 -0.02511  0.02901
                  z  -0.17388 -0.17856 -0.02734 -0.01412 -0.13593  0.02233
 20   h           x  -0.04813 -0.05231  0.23235 -0.03871 -0.03854 -0.13100
                  y  -0.00247 -0.00759 -0.23651  0.23163 -0.02526  0.06851
                  z  -0.29906 -0.30971 -0.04328 -0.01471 -0.19315  0.02922
 21   c           x   0.00811 -0.03208 -0.02500  0.00386 -0.00057 -0.03985
                  y   0.01245 -0.00566 -0.15723  0.22056 -0.01726  0.03846
                  z   0.04433 -0.22321  0.00451 -0.00382  0.01669  0.00647
 22   h           x   0.01554 -0.05572 -0.07408  0.01217  0.00977 -0.02288
                  y   0.01676 -0.01002 -0.28593  0.23926 -0.01106  0.08384
                  z   0.08793 -0.38948  0.01350  0.00345  0.07673  0.00077
 23   c           x   0.03455 -0.00345 -0.13413  0.01996  0.01416 -0.00124
                  y   0.01796 -0.00143 -0.01947  0.20114 -0.01701 -0.01083
                  z   0.20760 -0.05393  0.02485 -0.00246  0.09539 -0.00222
 24   h           x   0.06235 -0.00478 -0.26721  0.04120  0.03588  0.04595
                  y   0.02638 -0.00245 -0.04029  0.20473 -0.01069 -0.00355
                  z   0.37790 -0.08854  0.04964  0.00580  0.21721 -0.01488

reduced mass(g/mol)     3.668    3.659    3.757    6.257    3.937    3.930


       mode              13       14       15       16       17       18

     frequency         405.00   405.45   407.22   407.31   611.39   611.42

     symmetry            a        a        a        a        a        a   

        IR               YES      YES      YES      YES      YES      YES
|dDIP/dQ|   (a.u.)     0.0000   0.0001   0.0001   0.0002   0.0002   0.0001
intensity (km/mol)       0.00     0.02     0.01     0.08     0.10     0.01
intensity (  %   )       0.00     0.02     0.01     0.06     0.08     0.00
 
       RAMAN             YES      YES      YES      YES      YES      YES
 
  1   h           x   0.05651 -0.05826  0.05066  0.02619 -0.15379 -0.12357
                  y   0.29558 -0.30645  0.26338  0.13615  0.04434  0.01848
                  z  -0.00864  0.00899 -0.00834 -0.00477  0.04912 -0.30775
  2   c           x   0.02621 -0.02683  0.02317  0.01208  0.03661 -0.24884
                  y   0.13463 -0.13964  0.11912  0.06215 -0.00991  0.04210
                  z  -0.00369  0.00388 -0.00365 -0.00245 -0.11295 -0.20437
  3   c           x  -0.02844  0.02859  0.02041 -0.00058 -0.00999 -0.17753
                  y  -0.14803  0.14878  0.10572 -0.00103 -0.00454  0.04106
                  z   0.00414 -0.00430 -0.00342 -0.00043 -0.18787  0.24220
  4   h           x  -0.06337  0.06362  0.04523 -0.00100  0.16470  0.02184
                  y  -0.32696  0.32699  0.23517 -0.00189 -0.02236  0.00562
                  z   0.01010 -0.01004 -0.00782 -0.00049 -0.12221  0.31677
  5   c           x   0.00264 -0.00183 -0.04411 -0.01146 -0.23426 -0.00205
                  y   0.01346 -0.00923 -0.22820 -0.05867  0.04438  0.00441
                  z  -0.00040  0.00003  0.00645  0.00106  0.01239  0.15269
  6   h           x   0.00570 -0.00403 -0.09654 -0.02495 -0.21883 -0.06459
                  y   0.02924 -0.01997 -0.49847 -0.12854  0.05801  0.00920
                  z  -0.00084 -0.00037  0.01386  0.00341  0.07911 -0.22237
  7   c           x   0.02589 -0.02690  0.02291  0.01166 -0.03690  0.24878
                  y   0.13481 -0.13990  0.11869  0.05876  0.00914 -0.04292
                  z  -0.00370  0.00370 -0.00262 -0.00183  0.11331  0.20450
  8   h           x   0.05797 -0.05999  0.05109  0.02562  0.15824  0.12523
                  y   0.29711 -0.30659  0.26394  0.12928 -0.01891 -0.01154
                  z  -0.00744  0.00781 -0.00563 -0.00355 -0.04919  0.30756
  9   c           x  -0.02888  0.02869  0.02115 -0.00087  0.00953  0.17749
                  y  -0.14815  0.14887  0.10764 -0.00407  0.00327 -0.04046
                  z   0.00410 -0.00398 -0.00245 -0.00027  0.18767 -0.24223
 10   h           x  -0.06246  0.06238  0.04633 -0.00175 -0.16012 -0.02168
                  y  -0.32580  0.32707  0.23792 -0.00868  0.04782 -0.00234
                  z   0.00817 -0.00811 -0.00529 -0.00012  0.12123 -0.31693
 11   c           x   0.00257 -0.00175 -0.04338 -0.01131  0.23392  0.00201
                  y   0.01366 -0.00947 -0.22686 -0.05845 -0.04568 -0.00474
                  z  -0.00044  0.00037  0.00640  0.00075 -0.01240 -0.15269
 12   h           x   0.00554 -0.00378 -0.09503 -0.02469  0.22358  0.06557
                  y   0.02959 -0.02058 -0.49779 -0.12863 -0.03442 -0.00453
                  z  -0.00133  0.00117  0.01382  0.00269 -0.07993  0.22215
 13   h           x   0.04873  0.03860  0.01381 -0.04466 -0.01819  0.00366
                  y   0.01526  0.01220  0.00410 -0.01402 -0.20045 -0.04394
                  z   0.32340  0.25586  0.08403 -0.29815  0.01295  0.00381
 14   c           x   0.02269  0.01800  0.00675 -0.02065 -0.16685 -0.03401
                  y   0.00707  0.00578  0.00226 -0.00631 -0.01674  0.00231
                  z   0.15051  0.11929  0.03889 -0.13804  0.02600  0.00541
 15   c           x  -0.02230 -0.02480  0.00289 -0.01316 -0.14514 -0.04014
                  y  -0.00709 -0.00773  0.00125 -0.00399 -0.05003 -0.00718
                  z  -0.14795 -0.16439  0.02007 -0.08712  0.02410  0.00557
 16   h           x  -0.04769 -0.05322  0.00622 -0.02971 -0.05618 -0.02085
                  y  -0.01515 -0.01676  0.00120 -0.00941  0.18367  0.04267
                  z  -0.31627 -0.35288  0.04546 -0.19629  0.00033  0.00240
 17   c           x  -0.00028  0.00680 -0.00983  0.03412  0.04662  0.00710
                  y  -0.00012  0.00221 -0.00166  0.01106 -0.25647 -0.06008
                  z  -0.00204  0.04510 -0.05947  0.22751  0.00497  0.00129
 18   h           x  -0.00100  0.01402 -0.02023  0.07400  0.03273  0.01395
                  y  -0.00027  0.00443 -0.00512  0.02329 -0.25750 -0.05872
                  z  -0.00680  0.09453 -0.12937  0.49335  0.00811  0.00369
 19   c           x   0.02265  0.01815  0.00459 -0.02045  0.16755  0.03423
                  y   0.00710  0.00576  0.00211 -0.00618  0.01617 -0.00243
                  z   0.15000  0.12041  0.03841 -0.13414 -0.02623 -0.00464
 20   h           x   0.04852  0.03799  0.01251 -0.04499  0.01655 -0.00400
                  y   0.01532  0.01198  0.00246 -0.01456  0.20095  0.04405
                  z   0.32249  0.25254  0.08491 -0.29984 -0.01128 -0.00271
 21   c           x  -0.02226 -0.02465  0.00334 -0.01365  0.14449  0.03991
                  y  -0.00703 -0.00769  0.00187 -0.00405  0.04912  0.00697
                  z  -0.14743 -0.16355  0.02103 -0.09102 -0.02394 -0.00588
 22   h           x  -0.04798 -0.05331  0.00744 -0.02944  0.05606  0.02094
                  y  -0.01525 -0.01682  0.00424 -0.00881 -0.18432 -0.04277
                  z  -0.31810 -0.35385  0.04524 -0.19660  0.00110 -0.00112
 23   c           x  -0.00046  0.00668 -0.00816  0.03443 -0.04664 -0.00724
                  y  -0.00017  0.00224 -0.00239  0.01100  0.25516  0.05974
                  z  -0.00297  0.04427 -0.05988  0.22717 -0.00526 -0.00219
 24   h           x  -0.00096  0.01421 -0.01823  0.07338 -0.03224 -0.01313
                  y  -0.00033  0.00462 -0.00558  0.02328  0.25613  0.05850
                  z  -0.00644  0.09450 -0.12811  0.48617 -0.00693 -0.00144

reduced mass(g/mol)     2.929    2.937    2.897    2.933    6.007    6.008


       mode              19       20       21       22       23       24

     frequency         611.71   612.67   688.47   690.25   716.13   719.19

     symmetry            a        a        a        a        a        a   

        IR               YES      YES      YES      YES      YES      YES
|dDIP/dQ|   (a.u.)     0.0002   0.0001   0.0069   0.0085   0.0003   0.0001
intensity (km/mol)       0.10     0.02    83.89   126.92     0.15     0.02
intensity (  %   )       0.08     0.02    66.09   100.00     0.12     0.02
 
       RAMAN             YES      YES      YES      YES      YES      YES
 
  1   h           x  -0.19915  0.05106 -0.00463 -0.07532 -0.00102  0.06850
                  y   0.02746 -0.00007 -0.02920 -0.39586 -0.00341  0.35664
                  z  -0.02482 -0.00144  0.00099  0.01262 -0.00008 -0.01051
  2   c           x  -0.02394  0.00034  0.00123  0.00671 -0.00022  0.03888
                  y  -0.00089  0.00176  0.00301  0.03513  0.00042  0.19997
                  z  -0.17185  0.04024 -0.00003 -0.00109 -0.00019 -0.00555
  3   c           x  -0.05421  0.00974  0.00019  0.00644 -0.00001 -0.03856
                  y   0.00690 -0.00187  0.00323  0.03282 -0.00012 -0.20117
                  z  -0.13899  0.04294 -0.00001 -0.00109  0.00017  0.00550
  4   h           x   0.17710 -0.04513 -0.00620 -0.07753 -0.00050 -0.06539
                  y  -0.04448  0.01807 -0.02985 -0.40166 -0.00625 -0.34123
                  z  -0.04947  0.02083  0.00131  0.01341  0.00067  0.01035
  5   c           x  -0.24791  0.06481  0.00042  0.00652  0.00013  0.03818
                  y   0.05109 -0.01505  0.00217  0.03431  0.00068  0.20135
                  z   0.05122 -0.00958 -0.00058 -0.00090  0.00037 -0.00547
  6   h           x  -0.25307  0.06676 -0.00505 -0.07655 -0.00067  0.06808
                  y   0.03926 -0.00192 -0.02465 -0.39450 -0.00234  0.35502
                  z   0.02894 -0.01356 -0.00139  0.01109 -0.00084 -0.00971
  7   c           x   0.02405 -0.00017  0.00061  0.00637 -0.00002 -0.03861
                  y   0.00031 -0.00229  0.00066  0.03277 -0.00020 -0.20125
                  z   0.17152 -0.04018 -0.00012 -0.00078  0.00024  0.00546
  8   h           x   0.19586 -0.04743 -0.00360 -0.07861 -0.00067 -0.06542
                  y  -0.04562  0.01790 -0.02061 -0.40162 -0.00100 -0.33905
                  z   0.02490  0.00118  0.00063  0.00888  0.00073  0.00830
  9   c           x   0.05454 -0.00959 -0.00029  0.00684  0.00041  0.03879
                  y  -0.00737  0.00137  0.00158  0.03546  0.00101  0.19978
                  z   0.13930 -0.04298  0.00023 -0.00081 -0.00026 -0.00554
 10   h           x  -0.18005  0.04865 -0.00455 -0.07584  0.00000  0.06823
                  y   0.02607 -0.00029 -0.02005 -0.39681 -0.00081  0.35489
                  z   0.05043 -0.02152  0.00083  0.00895 -0.00028 -0.00902
 11   c           x   0.24821 -0.06576  0.00016  0.00615  0.00012 -0.03928
                  y  -0.04797  0.01134  0.00186  0.03215 -0.00016 -0.20258
                  z  -0.05127  0.00976 -0.00046 -0.00083  0.00027  0.00563
 12   h           x   0.24942 -0.06378 -0.00512 -0.07642 -0.00051 -0.06397
                  y  -0.05639  0.01698 -0.02510 -0.40051 -0.00377 -0.33257
                  z  -0.02847  0.01315 -0.00049  0.01103  0.00071  0.00920
 13   h           x  -0.06271 -0.30294  0.06173 -0.00459 -0.04504  0.00021
                  y   0.15421 -0.13313  0.01937 -0.00510 -0.01433  0.00102
                  z   0.00202  0.05196  0.41021 -0.02479 -0.29938 -0.00028
 14   c           x   0.10142 -0.21206 -0.00492 -0.00213 -0.03297  0.00070
                  y  -0.04958 -0.24876 -0.00156 -0.00180 -0.01033  0.00059
                  z  -0.01295  0.04365 -0.03212  0.00300 -0.21835  0.00038
 15   c           x   0.19642  0.22700 -0.00553 -0.00088  0.03166 -0.00021
                  y  -0.00181 -0.18627 -0.00181 -0.00169  0.01005  0.00042
                  z  -0.02944 -0.02535 -0.03691  0.00216  0.21157 -0.00030
 16   h           x   0.13361  0.30618  0.06000 -0.00453  0.05486 -0.00075
                  y  -0.16547  0.02752  0.01891 -0.00154  0.01753 -0.00070
                  z  -0.01229 -0.04722  0.39794 -0.02545  0.36509 -0.00120
 17   c           x  -0.00394  0.15197 -0.00402  0.00085 -0.03202 -0.00023
                  y   0.23616 -0.02092 -0.00128 -0.00178 -0.01023  0.00040
                  z  -0.01067 -0.02222 -0.02693  0.00176 -0.21215  0.00046
 18   h           x  -0.08805 -0.21129  0.05842 -0.00023 -0.05324  0.00023
                  y   0.22213 -0.07666  0.01818 -0.00138 -0.01676  0.00042
                  z   0.00289  0.03549  0.38950 -0.02332 -0.35477  0.00013
 19   c           x  -0.10164  0.21166 -0.00535  0.00223  0.03170 -0.00049
                  y   0.05041  0.24886 -0.00167  0.00054  0.00988 -0.00028
                  z   0.01303 -0.04357 -0.03584  0.00155  0.21024 -0.00036
 20   h           x   0.06395  0.30166  0.05947 -0.00141  0.05713 -0.00160
                  y  -0.15294  0.13449  0.01861 -0.00134  0.01816  0.00141
                  z  -0.00245 -0.05167  0.39502 -0.02603  0.38092 -0.00101
 21   c           x  -0.19607 -0.22738 -0.00484  0.00140 -0.03259  0.00010
                  y   0.00237  0.18625 -0.00151  0.00091 -0.01039 -0.00076
                  z   0.02933  0.02539 -0.03229  0.00235 -0.21770  0.00051
 22   h           x  -0.13353 -0.30672  0.06150 -0.00395 -0.04657  0.00021
                  y   0.16583 -0.02842  0.01945 -0.00333 -0.01498 -0.00028
                  z   0.01212  0.04757  0.40847 -0.02494 -0.31015 -0.00020
 23   c           x   0.00386 -0.15180 -0.00559 -0.00041  0.03266  0.00013
                  y  -0.23533  0.02110 -0.00168  0.00274  0.01042 -0.00102
                  z   0.01068  0.02203 -0.03699  0.00185  0.21621 -0.00029
 24   h           x   0.08712  0.21767  0.06084 -0.00272  0.04986 -0.00113
                  y  -0.22111  0.07894  0.01926  0.00177  0.01586 -0.00125
                  z  -0.00273 -0.03625  0.40471 -0.02679  0.33135 -0.00118

reduced mass(g/mol)     6.006    6.020    1.085    1.087    4.118    3.777


       mode              25       26       27       28       29       30

     frequency         863.56   863.83   867.87   868.17   959.17   969.15

     symmetry            a        a        a        a        a        a   

        IR               YES      YES      YES      YES      YES      YES
|dDIP/dQ|   (a.u.)     0.0003   0.0004   0.0006   0.0006   0.0002   0.0003
intensity (km/mol)       0.21     0.33     0.71     0.57     0.06     0.12
intensity (  %   )       0.17     0.26     0.56     0.45     0.05     0.09
 
       RAMAN             YES      YES      YES      YES      YES      YES
 
  1   h           x  -0.02632  0.02899  0.05024  0.08522  0.00504 -0.00018
                  y  -0.14509  0.15977  0.26417  0.44384  0.02043  0.00928
                  z   0.00411 -0.00519 -0.00805 -0.01452 -0.00114  0.00008
  2   c           x   0.00471 -0.00548 -0.00741 -0.01247 -0.00023 -0.00120
                  y   0.02139 -0.02393 -0.03946 -0.06696 -0.00395 -0.00163
                  z  -0.00073  0.00049  0.00139  0.00211  0.00014 -0.00027
  3   c           x   0.00386 -0.00441 -0.01515  0.00215  0.00022  0.00114
                  y   0.02310 -0.02589 -0.07699  0.01024  0.00304  0.00229
                  z  -0.00045  0.00064  0.00266 -0.00006  0.00017 -0.00054
  4   h           x  -0.02923  0.03455  0.09860 -0.01163 -0.00280 -0.00058
                  y  -0.15016  0.17001  0.51123 -0.06511 -0.01471 -0.01419
                  z   0.00567 -0.00561 -0.01685  0.00281  0.00105  0.00046
  5   c           x  -0.00004 -0.00030 -0.00683  0.01398  0.00001  0.00008
                  y  -0.00014 -0.00182 -0.03577  0.07415  0.00005  0.00016
                  z  -0.00038  0.00064  0.00050 -0.00224 -0.00041  0.00078
  6   h           x  -0.00049  0.00256  0.04655 -0.09732 -0.00074  0.00015
                  y   0.00043  0.01245  0.24066 -0.49925 -0.00070 -0.00086
                  z  -0.00377  0.00075 -0.00844  0.01288 -0.00399  0.00245
  7   c           x  -0.00379  0.00391  0.00778  0.01348 -0.00009 -0.00148
                  y  -0.02310  0.02380  0.03917  0.06745 -0.00306 -0.00229
                  z   0.00066 -0.00053 -0.00055 -0.00164  0.00034 -0.00032
  8   h           x   0.02987 -0.03235 -0.05176 -0.08676  0.00305  0.00043
                  y   0.15055 -0.15667 -0.26235 -0.44656  0.01499  0.01431
                  z  -0.00272  0.00418  0.00677  0.00960  0.00044  0.00031
  9   c           x  -0.00475  0.00574  0.01445 -0.00168  0.00021  0.00104
                  y  -0.02145  0.02611  0.07662 -0.00946  0.00392  0.00156
                  z   0.00071 -0.00125 -0.00147  0.00033  0.00017 -0.00092
 10   h           x   0.02636 -0.03224 -0.09800  0.01232 -0.00529  0.00004
                  y   0.14521 -0.17382 -0.50912  0.06082 -0.02032 -0.00899
                  z  -0.00330  0.00319  0.01170 -0.00101  0.00041 -0.00045
 11   c           x  -0.00009  0.00067  0.00700 -0.01479 -0.00008  0.00040
[...]
                  z  -0.02918 -0.00035 -0.00619  0.00006 -0.01797  0.00229
 22   h           x  -0.08742 -0.00102 -0.14408  0.00117 -0.04801  0.12887
                  y  -0.22906 -0.00254 -0.38160  0.00311 -0.36498  0.21871
                  z   0.02420 -0.00024  0.03993 -0.00035  0.02462 -0.02983
 23   c           x  -0.30021 -0.00302  0.05621 -0.00046 -0.03289 -0.08425
                  y  -0.04619 -0.00050  0.00842 -0.00007 -0.09374  0.00628
                  z   0.04751  0.00056 -0.00885  0.00008  0.00939  0.01239
 24   h           x   0.28845  0.00281 -0.39495  0.00322  0.18602  0.29618
                  y   0.04640  0.00043 -0.06253  0.00051 -0.07878  0.07033
                  z  -0.04563 -0.00004  0.06228 -0.00051 -0.02422 -0.04788

reduced mass(g/mol)     7.111    7.111    1.248    1.248    2.004    1.993


       mode              55       56       57       58       59       60

     frequency        1515.77  1516.99  1634.71  1634.77  1634.99  1635.20

     symmetry            a        a        a        a        a        a   

        IR               YES      YES      YES      YES      YES      YES
|dDIP/dQ|   (a.u.)     0.0021   0.0012   0.0004   0.0002   0.0006   0.0004
intensity (km/mol)       7.72     2.63     0.27     0.08     0.68     0.25
intensity (  %   )       6.08     2.08     0.21     0.06     0.54     0.19
 
       RAMAN             YES      YES      YES      YES      YES      YES
 
  1   h           x   0.15306  0.24130 -0.24234  0.17215 -0.04185  0.14476
                  y  -0.03706 -0.05179  0.05311 -0.03123  0.01012 -0.03395
                  z  -0.25287 -0.16319  0.20523  0.05316  0.08801 -0.18568
  2   c           x  -0.10682 -0.04459  0.18980  0.02690  0.07682 -0.16462
                  y   0.02023  0.01076 -0.04120 -0.00091 -0.01519  0.03416
                  z  -0.01182  0.07042 -0.15878  0.15596 -0.01665  0.08095
  3   c           x   0.09135 -0.05867 -0.15028 -0.17082 -0.10183  0.17804
                  y  -0.01918  0.00970  0.03022  0.02789  0.01871 -0.03383
                  z  -0.05103 -0.05538  0.04826 -0.17148 -0.02866  0.01542
  4   h           x  -0.20311  0.26712  0.11320  0.30038  0.12457 -0.18852
                  y   0.03376 -0.04999 -0.01671 -0.05759 -0.02225  0.03246
                  z  -0.18197  0.06129  0.16005 -0.00371  0.05838 -0.12959
  5   c           x   0.02681  0.05542  0.07547  0.08667  0.05212 -0.08984
                  y  -0.00121 -0.01073 -0.01816 -0.00854 -0.00948  0.01766
                  z   0.14371 -0.00420 -0.13970  0.29128  0.02516  0.02102
  6   h           x  -0.08635  0.06346  0.13289 -0.02423  0.04447 -0.10149
                  y   0.00211 -0.01348 -0.02256 -0.00657 -0.00792  0.02129
                  z  -0.52995 -0.02986  0.14001 -0.38834 -0.05124  0.01003
  7   c           x  -0.10665 -0.04462 -0.19033 -0.02705 -0.07818  0.16480
                  y   0.02040  0.01050  0.04081  0.00112  0.01555 -0.03392
                  z  -0.01155  0.07068  0.15967 -0.15668  0.01909 -0.08053
  8   h           x   0.15412  0.24241  0.24442 -0.17261  0.04792 -0.14453
                  y  -0.03630 -0.05162 -0.05206  0.03194 -0.01175  0.03276
                  z  -0.25332 -0.16357 -0.20632 -0.05385 -0.09188  0.18594
  9   c           x   0.09089 -0.05863  0.14993  0.17093  0.09989 -0.17848
                  y  -0.01888  0.00998 -0.03037 -0.02844 -0.01846  0.03410
                  z  -0.05146 -0.05524 -0.04853  0.17111  0.02658 -0.01577
 10   h           x  -0.20141  0.26669 -0.11129 -0.30098 -0.11794  0.18938
                  y   0.03442 -0.05028  0.01779  0.05842  0.02075 -0.03363
                  z  -0.18161  0.06148 -0.15954  0.00290 -0.05725  0.12985
 11   c           x   0.02706  0.05519 -0.07503 -0.08652 -0.04983  0.09005
                  y  -0.00127 -0.01060  0.01857  0.00875  0.00925 -0.01801
                  z   0.14408 -0.00418  0.13907 -0.28982 -0.02522 -0.02119
 12   h           x  -0.08633  0.06285 -0.13268  0.02366 -0.04268  0.10187
                  y   0.00202 -0.01360  0.02113  0.00608  0.00768 -0.02037
                  z  -0.53118 -0.02982 -0.13952  0.38631  0.05031 -0.00967
 13   h           x   0.01183 -0.12176  0.18738  0.08385 -0.08975  0.18542
                  y  -0.00335  0.01450 -0.15424 -0.09438  0.28598 -0.05700
                  z  -0.00165  0.01764 -0.02090 -0.00819 -0.00003 -0.02521
 14   c           x   0.00281 -0.03993 -0.08158 -0.05726  0.21249 -0.00308
                  y   0.00585 -0.06270  0.17297  0.08024 -0.10630  0.16134
                  z  -0.00061  0.00900  0.00409  0.00481 -0.02700 -0.00720
 15   c           x   0.00169 -0.01386 -0.01601  0.01223 -0.15501 -0.08974
                  y  -0.00794  0.09792 -0.18517 -0.06897 -0.02792 -0.23702
                  z   0.00018 -0.00255  0.01123  0.00137  0.02469  0.02479
 16   h           x   0.01359 -0.16399  0.13204  0.06373 -0.10204  0.11339
                  y   0.02117 -0.27074  0.19227  0.05702  0.15105  0.30122
                  z  -0.00371  0.03754 -0.02908 -0.01210  0.00819 -0.03143
 17   c           x  -0.00955  0.10926 -0.02208 -0.04434  0.29999  0.10952
                  y  -0.00005 -0.00498  0.09344  0.03523  0.01129  0.11932
                  z   0.00081 -0.01624 -0.00115  0.00522 -0.04569 -0.02216
 18   h           x   0.03543 -0.40530 -0.00457  0.04261 -0.38006 -0.18443
                  y   0.00749 -0.08958  0.10813  0.05367 -0.09793  0.08676
                  z   0.00158  0.06542 -0.00395 -0.01085  0.06121  0.02379
 19   c           x   0.00274 -0.03678  0.08107  0.05706 -0.21252  0.00310
                  y   0.00583 -0.06444 -0.17241 -0.08003  0.10533 -0.16327
                  z  -0.00064  0.00860 -0.00404 -0.00482  0.02702  0.00728
 20   h           x   0.01181 -0.12266 -0.18386 -0.08203  0.08488 -0.18943
                  y  -0.00342  0.01751  0.14674  0.09044 -0.27723  0.05823
                  z  -0.00190  0.01743  0.02073  0.00798  0.00033  0.02560
 21   c           x   0.00178 -0.01657  0.01664 -0.01183  0.15335  0.08863
                  y  -0.00779  0.09516  0.18560  0.06928  0.02736  0.23752
                  z   0.00017 -0.00202 -0.01132 -0.00154 -0.02442 -0.02464
 22   h           x   0.01361 -0.16340 -0.13190 -0.06367  0.10084 -0.11529
                  y   0.02094 -0.26426 -0.19470 -0.05815 -0.15058 -0.30353
                  z  -0.00320  0.03722  0.02924  0.01224 -0.00806  0.03188
 23   c           x  -0.00953  0.11243  0.02134  0.04382 -0.29674 -0.10710
                  y  -0.00007 -0.00411 -0.09373 -0.03535 -0.01058 -0.11804
                  z   0.00142 -0.01674  0.00123 -0.00492  0.04521  0.02174
 24   h           x   0.03372 -0.38885  0.00922 -0.04013  0.36515  0.17366
                  y   0.00704 -0.08769 -0.10572 -0.05293  0.09723 -0.08437
                  z  -0.00551  0.06263  0.00355  0.00866 -0.05946 -0.02213

reduced mass(g/mol)     1.995    1.990    5.295    5.285    5.290    5.286


       mode              61       62       63       64       65       66

     frequency        3153.96  3156.86  3162.22  3165.77  3167.77  3169.43

     symmetry            a        a        a        a        a        a   

        IR               YES      YES      YES      YES      YES      YES
|dDIP/dQ|   (a.u.)     0.0009   0.0003   0.0007   0.0003   0.0001   0.0032
intensity (km/mol)       1.60     0.16     0.96     0.14     0.03    17.83
intensity (  %   )       1.26     0.13     0.75     0.11     0.02    14.04
 
       RAMAN             YES      YES      YES      YES      YES      YES
 
  1   h           x  -0.00132  0.24495  0.00296  0.19569 -0.31270  0.00119
                  y   0.00016 -0.03707 -0.00043 -0.02967  0.04722 -0.00005
                  z  -0.00161  0.30039  0.00365  0.23738 -0.38559  0.00158
  2   c           x   0.00012 -0.02038 -0.00024 -0.01756  0.02604 -0.00008
                  y  -0.00000  0.00311  0.00004  0.00273 -0.00391 -0.00003
                  z   0.00012 -0.02489 -0.00033 -0.01933  0.03339 -0.00017
  3   c           x  -0.00005 -0.01146 -0.00001  0.00821  0.01334 -0.00028
                  y   0.00002  0.00324  0.00002 -0.00218 -0.00388  0.00006
                  z   0.00012  0.03108  0.00019 -0.01782 -0.03951  0.00074
  4   h           x   0.00050  0.13628  0.00057 -0.08072 -0.16550  0.00322
                  y  -0.00015 -0.03888 -0.00027  0.02286  0.04738 -0.00089
                  z  -0.00141 -0.37576 -0.00178  0.21685  0.46083 -0.00874
  5   c           x   0.00013  0.03784 -0.00084 -0.04927  0.00009  0.00096
                  y  -0.00003 -0.00750  0.00020  0.00977  0.00003 -0.00017
                  z  -0.00002 -0.00644  0.00015  0.00835  0.00178 -0.00017
  6   h           x  -0.00140 -0.45202  0.00922  0.57615  0.00204 -0.01150
                  y   0.00016  0.08972 -0.00178 -0.11437 -0.00047  0.00249
                  z   0.00024  0.07677 -0.00157 -0.09782 -0.00260  0.00196
  7   c           x  -0.00006 -0.02058 -0.00012  0.01420 -0.02542 -0.00026
                  y   0.00002  0.00345  0.00003 -0.00244  0.00422  0.00003
                  z  -0.00007 -0.02498 -0.00023  0.01492 -0.03276 -0.00029
  8   h           x   0.00071  0.24652  0.00160 -0.15482  0.30611  0.00296
                  y  -0.00012 -0.04147 -0.00037  0.02612 -0.05144 -0.00049
                  z   0.00088  0.30301  0.00208 -0.18734  0.37875  0.00354
  9   c           x   0.00007 -0.01076 -0.00013 -0.00965 -0.01407  0.00016
                  y  -0.00000  0.00274  0.00004  0.00236  0.00364 -0.00008
                  z  -0.00016  0.02933  0.00043  0.02238  0.04111 -0.00033
 10   h           x  -0.00074  0.12887  0.00178  0.09983  0.17327 -0.00159
                  y   0.00015 -0.03267 -0.00043 -0.02517 -0.04397  0.00052
                  z   0.00201 -0.35396 -0.00494 -0.26938 -0.47958  0.00421
 11   c           x  -0.00002  0.03275  0.00004  0.04840  0.00113 -0.00199
                  y   0.00002 -0.00642  0.00001 -0.00947 -0.00027  0.00034
                  z   0.00001 -0.00554 -0.00001 -0.00817 -0.00208  0.00034
 12   h           x   0.00029 -0.39290 -0.00083 -0.56861 -0.01642  0.02298
                  y  -0.00006  0.07682  0.00021  0.11114  0.00328 -0.00443
                  z  -0.00005  0.06669  0.00014  0.09649  0.00519 -0.00392
 13   h           x   0.39741 -0.00044  0.32992  0.00221  0.00088  0.20496
                  y   0.32496 -0.00035  0.26758  0.00192  0.00075  0.17239
                  z  -0.07525  0.00008 -0.06236 -0.00042 -0.00016 -0.03904
 14   c           x  -0.03311  0.00003 -0.02884 -0.00015 -0.00007 -0.01630
                  y  -0.02717  0.00003 -0.02187 -0.00021 -0.00007 -0.01667
                  z   0.00627 -0.00001  0.00538  0.00003  0.00001  0.00324
 15   c           x   0.02999 -0.00007  0.04443 -0.00106 -0.00023 -0.03886
                  y  -0.01098  0.00003 -0.01653  0.00043  0.00009  0.01598
                  z  -0.00400  0.00001 -0.00591  0.00014  0.00003  0.00510
 16   h           x  -0.35623  0.00072 -0.51847  0.01253  0.00268  0.44917
                  y   0.13817 -0.00032  0.20144 -0.00494 -0.00105 -0.17621
                  z   0.04710 -0.00010  0.06854 -0.00166 -0.00029 -0.05930
 17   c           x  -0.00199 -0.00001 -0.00214  0.00012  0.00003  0.00423
                  y   0.01039  0.00004  0.00491 -0.00075 -0.00019 -0.02439
                  z  -0.00019 -0.00000  0.00009  0.00002  0.00000  0.00051
 18   h           x   0.02153  0.00008  0.01186 -0.00133 -0.00031 -0.04812
                  y  -0.13447 -0.00059 -0.06359  0.00931  0.00227  0.30330
                  z   0.00302  0.00001  0.00118 -0.00025  0.00004 -0.00688
 19   c           x  -0.01569  0.00000  0.02208  0.00071  0.00022  0.03321
                  y  -0.01201 -0.00001  0.01675  0.00064  0.00018  0.02679
                  z   0.00293  0.00000 -0.00411 -0.00014 -0.00003 -0.00626
 20   h           x   0.18676  0.00025 -0.25653 -0.00887 -0.00258 -0.38713
                  y   0.15277  0.00043 -0.20987 -0.00770 -0.00211 -0.31814
                  z  -0.03527 -0.00006  0.04846  0.00170  0.00024  0.07319
 21   c           x   0.03616  0.00009 -0.04670  0.00030 -0.00000 -0.01443
                  y  -0.01451 -0.00005  0.01809 -0.00016 -0.00001  0.00315
                  z  -0.00475 -0.00001  0.00617 -0.00004  0.00001  0.00202
 22   h           x  -0.43357 -0.00120  0.54683 -0.00346 -0.00000  0.15625
                  y   0.16967  0.00048 -0.21335  0.00141  0.00002 -0.05758
                  z   0.05719  0.00016 -0.07216  0.00046 -0.00001 -0.02078
 23   c           x  -0.00695  0.00001  0.00409 -0.00024 -0.00005 -0.00649
                  y   0.04326 -0.00003 -0.01378  0.00146  0.00030  0.04727
                  z  -0.00101  0.00000  0.00004 -0.00003 -0.00001 -0.00126
 24   h           x   0.08365 -0.00007 -0.02900  0.00274  0.00056  0.08586
                  y  -0.52009  0.00031  0.16508 -0.01682 -0.00351 -0.54386
                  z   0.01207 -0.00001 -0.00346  0.00039  0.00007  0.01287

reduced mass(g/mol)     1.084    1.084    1.087    1.087    1.087    1.089


       mode              67       68       69       70       71       72

     frequency        3179.88  3182.12  3183.76  3184.89  3192.86  3198.38

     symmetry            a        a        a        a        a        a   

        IR               YES      YES      YES      YES      YES      YES
|dDIP/dQ|   (a.u.)     0.0044   0.0047   0.0043   0.0031   0.0003   0.0005
intensity (km/mol)      33.99    38.92    33.22    16.65     0.21     0.48
intensity (  %   )      26.78    30.67    26.18    13.12     0.17     0.38
 
       RAMAN             YES      YES      YES      YES      YES      YES
 
  1   h           x   0.02366  0.17849  0.31009  0.00274 -0.25694  0.04183
                  y  -0.00348 -0.02679 -0.04699 -0.00060  0.03880 -0.00667
                  z   0.02985  0.22551  0.37677  0.00366 -0.31533  0.05152
  2   c           x  -0.00185 -0.01394 -0.02877 -0.00015  0.02346 -0.00380
                  y   0.00025  0.00197  0.00445  0.00007 -0.00356  0.00068
                  z  -0.00286 -0.02163 -0.03263 -0.00037  0.02878 -0.00478
  3   c           x  -0.00089 -0.00691  0.01697 -0.00045 -0.01267  0.00202
                  y   0.00030  0.00222 -0.00467  0.00017  0.00359 -0.00050
                  z   0.00355  0.02718 -0.04224  0.00167  0.03471 -0.00525
  4   h           x   0.01348  0.10324 -0.17610  0.00622  0.13796 -0.02112
                  y  -0.00400 -0.02984  0.05007 -0.00192 -0.03942  0.00567
                  z  -0.03867 -0.29695  0.48007 -0.01789 -0.38092  0.05779
  5   c           x  -0.00575 -0.04587  0.00171 -0.00281 -0.03199  0.00443
                  y   0.00118  0.00909 -0.00024  0.00057  0.00635 -0.00081
                  z   0.00099  0.00784  0.00313  0.00052  0.00547 -0.00075
  6   h           x   0.06382  0.51311 -0.01357  0.03120  0.34775 -0.04820
                  y  -0.01252 -0.10194  0.00256 -0.00643 -0.06908  0.00956
                  z  -0.01085 -0.08720 -0.00253 -0.00536 -0.05911  0.00817
  7   c           x  -0.00218 -0.01644 -0.02897 -0.00171 -0.02399  0.00357
                  y   0.00036  0.00265  0.00491  0.00031  0.00402 -0.00054
                  z  -0.00325 -0.02457 -0.03302 -0.00227 -0.02930  0.00424
  8   h           x   0.02727  0.20614  0.31305  0.01970  0.26201 -0.03843
                  y  -0.00469 -0.03449 -0.05274 -0.00342 -0.04410  0.00614
                  z   0.03432  0.26001  0.38168  0.02454  0.32230 -0.04703
  9   c           x  -0.00071 -0.00582  0.01640  0.00036  0.01313 -0.00202
                  y   0.00020  0.00168 -0.00407 -0.00003 -0.00334  0.00062
                  z   0.00307  0.02451 -0.04035 -0.00052 -0.03600  0.00577
 10   h           x   0.01153  0.09237 -0.16928 -0.00246 -0.14360  0.02265
                  y  -0.00288 -0.02369  0.04273  0.00041  0.03634 -0.00610
                  z  -0.03323 -0.26615  0.45881  0.00605  0.39478 -0.06270
 11   c           x  -0.00663 -0.04859  0.00052 -0.00081  0.03474 -0.00583
                  y   0.00130  0.00951 -0.00001  0.00023 -0.00678  0.00130
                  z   0.00113  0.00828  0.00327  0.00018 -0.00585  0.00101
 12   h           x   0.07447  0.54594 -0.00045  0.00937 -0.37920  0.06315
                  y  -0.01447 -0.10666 -0.00004 -0.00200  0.07404 -0.01267
                  z  -0.01266 -0.09275 -0.00470 -0.00165  0.06433 -0.01074
 13   h           x  -0.38311  0.05757  0.00398 -0.33625  0.02443  0.09533
                  y  -0.31533  0.04717  0.00321 -0.27159  0.02007  0.07945
                  z   0.07264 -0.01090 -0.00077  0.06351 -0.00463 -0.01812
 14   c           x   0.03369 -0.00514 -0.00037  0.03138 -0.00223 -0.00853
                  y   0.02891 -0.00425 -0.00027  0.02325 -0.00195 -0.00816
                  z  -0.00644  0.00098  0.00007 -0.00583  0.00043  0.00167
 15   c           x   0.03618 -0.00475 -0.00004  0.00750 -0.00443 -0.02498
                  y  -0.01597  0.00218  0.00005 -0.00549  0.00141  0.00736
                  z  -0.00469  0.00061  0.00001 -0.00087  0.00060  0.00341
 16   h           x  -0.41044  0.05431  0.00059 -0.09092  0.04709  0.25957
                  y   0.16310 -0.02154 -0.00029  0.03899 -0.01802 -0.09837
                  z   0.05409 -0.00715 -0.00017  0.01184 -0.00624 -0.03444
 17   c           x  -0.00233  0.00057  0.00007 -0.00438 -0.00173 -0.01200
                  y  -0.00551 -0.00090 -0.00045  0.03022  0.01058  0.07492
                  z   0.00061 -0.00004  0.00003 -0.00076 -0.00024 -0.00171
 18   h           x  -0.00477 -0.00248 -0.00086  0.05526  0.01912  0.13348
                  y   0.06210  0.01075  0.00524 -0.35542 -0.11721 -0.84444
                  z  -0.00217 -0.00013 -0.00030  0.00824  0.00265  0.01928
 19   c           x   0.04016 -0.00548  0.00004 -0.01598  0.00468  0.02506
                  y   0.03476 -0.00453  0.00007 -0.01653  0.00352  0.01797
                  z  -0.00768  0.00104  0.00001  0.00318 -0.00087 -0.00462
 20   h           x  -0.46531  0.06237 -0.00068  0.19629 -0.04982 -0.25876
                  y  -0.38615  0.05113 -0.00059  0.16652 -0.04058 -0.20969
                  z   0.08816 -0.01181 -0.00010 -0.03736  0.00940  0.04883
 21   c           x   0.02856 -0.00151  0.00042 -0.04201  0.00307  0.01175
                  y  -0.01364  0.00102 -0.00014  0.01490 -0.00135 -0.00575
                  z  -0.00365  0.00018 -0.00005  0.00562 -0.00040 -0.00149
 22   h           x  -0.32716  0.01843 -0.00456  0.45963 -0.03325 -0.12733
                  y   0.13127 -0.00786  0.00174 -0.17728  0.01313  0.05119
                  z   0.04299 -0.00240  0.00057 -0.06075  0.00438  0.01673
 23   c           x  -0.00507  0.00100  0.00010 -0.00816  0.00043  0.00148
                  y   0.01276 -0.00402 -0.00061  0.05243 -0.00284 -0.00971
                  z   0.00016  0.00004  0.00001 -0.00126  0.00007  0.00024
 24   h           x   0.02817 -0.00777 -0.00110  0.09286 -0.00491 -0.01659
                  y  -0.14789  0.04548  0.00683 -0.58000  0.03078  0.10395
                  z   0.00278 -0.00099 -0.00017  0.01353 -0.00072 -0.00244

reduced mass(g/mol)     1.094    1.095    1.095    1.096    1.099    1.096
 

         **************************************************************
         *                                                            *
         *  zero point VIBRATIONAL energy  :      0.2006732  Hartree  *
         *    SCF-energy                   :   -464.7295663           *
         *    SCF + E(vib0)                :   -464.5288931           *
         *                                                            *
         **************************************************************




 time elapsed for vibrational analysis     1.77 sec


    ------------------------------------------------------------------------
         total  cpu-time :  5 hours 39 minutes and 20 seconds
         total wall-time : 12 minutes and 24 seconds
    ------------------------------------------------------------------------

   ****  force : all done  ****


    2020-06-24 00:20:50.579 

