           Doing BLAS/Lapack in the master proc. with  8 CPUs.
           SMPCPUS    set: Shared-memory Parallelization with   8 CPUs.

           SMP Parallelization Reference:
           C. van Wullen, J. Comput. Chem. 32 (2011) 1195--1201

 force (c-13-41) : TURBOMOLE V7.2 ( 21454 ) 4 Oct 2017 at 12:48:15
 Copyright (C) 2017 TURBOMOLE GmbH, Karlsruhe


    2020-06-19 04:06:29.456 



                             T U R B O M O L E   

                          a o f o r c e - program

                        using direct algorithms for

                       SCF level calculations of
                         * harmonic force constants
                         * hyperpolarizabilities
                         * IR and RAMAN intensities
                         * VCD intensities

                       DFT level calculations of
                         * harmonic force constants
                         * IR intensities
                                                   
       Stephan Boecker, Peter Deglmann, Filipp Furche and Marco Haeser
                          Quantum Chemistry Group
                          Universitaet  Karlsruhe
                                   Germany

 
 
 
 
     References :
 
       RI-J implementation:
         Peter Deglmann, Klaus May, Filipp Furche, Reinhart Ahlrichs
                 Chem. Phys. Lett. 384:103 (2004)
 
       Efficiency, technical details:
         Peter Deglmann, Filipp Furche, Reinhart Ahlrichs
                 Chem. Phys. Lett. 362:511 (2002)
 
       Search of lowest eigenvalues by iterative diagonalization:
         Peter Deglmann, Filipp Furche
                 J. Chem. Phys. 117:9535 (2002)
 
       Vibrational circular dichroism implementation:
        Kevin Reiter, Michael Kuehn, Florian Weigend
                 J. Chem. Phys. 146:054102 (2017)  
 
 


              +--------------------------------------------------+
              | Atomic coordinate, charge and isotop information |
              +--------------------------------------------------+

                    atomic coordinates            atom    charge  isotop
         -1.06191498    0.97716832    0.00000803    c      6.000     0
          1.06191498   -0.97716833   -0.00000803    c      6.000     0
         -2.62660258    0.38141604   -1.20959329    h      1.000     0
         -0.39627629    2.80552635   -0.69232298    h      1.000     0
         -1.81471071    1.26372268    1.90182965    h      1.000     0
          1.81471075   -1.26372263   -1.90182964    h      1.000     0
          0.39627627   -2.80552637    0.69232292    h      1.000     0
          2.62660255   -0.38141607    1.20959334    h      1.000     0
 
       center of nuclear mass  :    0.00000000   -0.00000000    0.00000000
       center of nuclear charge:    0.00000000   -0.00000000    0.00000000

              +--------------------------------------------------+
              |               basis set information              |
              +--------------------------------------------------+

              we will work with the 1s 3p 5d 7f 9g ... basis set
              ...i.e. with spherical basis functions...

   type   atoms  prim   cont   basis
   ---------------------------------------------------------------------------
    c        2     46     31   def2-TZVP   [5s3p2d1f|11s6p2d1f]
    h        6      8      6   def2-TZVP   [3s1p|5s1p]
   ---------------------------------------------------------------------------
   total:    8    140     98
   ---------------------------------------------------------------------------

   total number of primitive shells          :   26
   total number of contracted shells         :   46
   total number of cartesian basis functions :  108
   total number of SCF-basis functions       :   98

 
             FOUND RI-J FLAG !
 

 NOTE: THIS IS A PRELIMINARY IMPLEMENTATION. THE RI APPROXIMATION IS
       PRESENTLY USED FOR CPKS CONTRIBUTIONS TO THE HESSIAN ONLY! SEE
       MANUAL FOR FURTHER DETAILS.

  
 AUXILIARY BASIS SET information:

              we will work with the 1s 3p 5d 7f 9g ... basis set
              ...i.e. with spherical basis functions...

   type   atoms  prim   cont   basis
   ---------------------------------------------------------------------------
    c        2     70     49   def2-TZVP   [6s4p3d1f1g|12s5p4d2f1g]
    h        6     16     11   def2-TZVP   [3s1p1d|5s2p1d]
   ---------------------------------------------------------------------------
   total:    8    236    164
   ---------------------------------------------------------------------------

   total number of primitive shells          :   32
   total number of contracted shells         :   60
   total number of cartesian basis functions :  194
   total number of SCF-basis functions       :  164


 symmetry group of the molecule :   c1 

 the group has the following generators :
   c1(z)

    1 symmetry operations found

 there are 1 real representations :   a   

 maximum number of shells which are related by symmetry :  1


 determining totally symmetric integral contributions 
    - equivalent to irreducible tensor elements - 
 which can be formed within each triple of representations :

             representation triple      contributions

              a     a     a               1

    mo occupation :
   irrep   mo's   occupied
    a       98        9
 
 number of basis functions   :                     98
 number of occupied orbitals :                      9
 
  MOs are in ASCII format !


 reading orbital data $scfmo  from file mos
 orbital characterization : scfconv=7
 time elapsed for calculating density matrices :   0.001 sec

 number of non-frozen orbitals          :    98
 number of non-frozen occupied orbitals :     9
 Blocking parameters 
 shells:
    index      start shell   last shell  start bf    last bf    #bf 
       1             1          46             1        108    108
  
           ----------------------
               RI - INFORMATION
           ----------------------

 biggest AO integral is expected to be     5.725698708

 Threshold for integral neglect (rithr2):   0.23E-10
 Threshold for integral neglect (rithr1):   0.23E-10

 Contributions to RI integral batches: 
  neglected integral batches:                     1
  direct contribution:                            0
  memory contribution:                  1080
 Core memory available (ricore):             25000 MiB
 Core memory needed for (P|Q) and Cholesky:      1 MiB
 Core memory used for integrals:                 9 MiB
 
 ****************************************
 Memory allocated for RIDFT: 9 MiB
 ****************************************
 
  
           ------------------
           density functional
           ------------------
 TPSS global hybrid functional
 exchange:    9/10 (LDA+TPSS) + 1/10 HF
 correlation: LDA (PW) + TPSS

 iterations will be done with small grid
  
 spherical integration : Lebedev's spherical grid
 spherical gridsize    :                     3
    i.e. gridpoints    :                   302
 value for diffuse not defined
 radial integration    : Chebyshev 2nd kind (scaling 3)
 radial gridsize       :                     3
 integration cells     :                     8
 partition function    : becke
 partition sharpness   :                     3
  
 
 Derivatives of quadrature weights will be included
 
          Overall gridpoints after grid construction =         34214
 Ordering of quadrature gridpoints disabled.
 
 
 
 
 OCCUPIED-OCCUPIED TENSOR SPACES :

          IRREP   tensor space dimension   number of roots

           a                81                  18
 
 OCCUPIED-VIRTUAL TENSOR SPACES :

          IRREP   tensor space dimension   number of roots

           a               801                  18
 
 
 
 
 CONSTRUCTING integral bounds

 setting up bound for integral derivative estimation

 increment for numerical differentiation : 0.00050000
 
 machine precision:   2.220446049250313E-016

 integral neglect threshold       :  0.10E-09
 integral storage threshold THIZE :  0.10E-04
 integral storage threshold THIME :         5

 
 
 
 PREPARING NUMERICAL INTEGRATION
 
 Remaining core memory for DFT =                 27994 MB
 
 Memory needed per atom    =                   137 KiB
 
     i. e.                     8 atoms per loop

 Calculating ground state density on molecular grid

 Integral of ground state density: N =   17.99998246475096    


 
 
 CONSTRUCTING first deriv. of <mu|x,y,z|nu> -> Dip. deriv.
  dipole integral derivatives will be neglected if
  expon. factor <0.462963E-11
      ...terminated. cpu:       0.05       wall:       0.01
 
 
 
 
 CONSTRUCTING first deriv. of  <mu|nu>
                               <mu|h|nu>    -> RHS
              second deriv. of <mu|nu>      -> Hessian
                               <mu|h|nu>    -> Hessian
                               nucl. rep.   -> Hessian
     integrals are neglected if expon. factor <  4.629629629629629E-013
  _________________________________
 |                                 |
 |         DFTD3 V3.1 Rev 0        |
 | S.Grimme, University Bonn       |
 |         June 2014               |
 |   see standalone version        |
 |       dftd3 -h for options      |
 |_________________________________|
 
 Please cite DFT-D3 work done with this code as:
 S. Grimme, J. Antony, S. Ehrlich and H. Krieg,
 J. Chem. Phys, 132 (2010), 154104.
 If used with BJ-damping cite also
 S. Grimme, S. Ehrlich and L. Goerigk,
 J. Comput. Chem. 32 (2011), 1456-1465
 For DFT-D2 the reference is
 S. Grimme, J. Comput. Chem., 27 (2006), 1787-1799
 
      ...terminated. cpu:       1.93       wall:       0.24
 
 
 
 
 CONSTRUCTING second deriv. of 2e energy    -> Hessian
   treating Coulomb (and exchange) contribution
     integrals will be neglected if total contribution <  4.629629629629630E-009
      ...terminated. cpu:      16.70       wall:       1.95
   treating exchange-correlation contribution
      ...terminated. cpu:      16.10       wall:       2.04
 
 
 
 
 CONSTRUCTING S(i,j)xi
      ...terminated. cpu:       0.00       wall:       0.00
 
 
 
 
 CONSTRUCTING <i|x,y,z|j>*S(i,j)xi          -> Dip. deriv.
      ...terminated. cpu:       0.01       wall:       0.00
 
 
 
 
 CONSTRUCTING epsilon(i)*S(i,j)xi*S(i,j)chi -> Hessian
      ...terminated. cpu:       0.00       wall:       0.00
 
 
 
 
 CONSTRUCTING G(a,i)[S(k,l)xi]              -> RHS
              G(i,j)[S(k,l)xi]*S(i,j)chi    -> Hessian
 
         Maximum core memory set to                  28000 MB
         This corresponds to                302208 vectors in CAO basis
      ...terminated. cpu:      26.01       wall:       2.75
 
 
 
 
 CONSTRUCTING G(mu,nu)[D(kap,lam)]xi
 
          Maximum core memory set to                  28000 MB
          Atoms treated simultaneously :                     8
      ...terminated. cpu:      25.07       wall:       2.76
 
 
 
 
 CONSTRUCTING F(a,i)xi                      -> RHS
              F(i,j)xi*S(i,j)chi            -> Hessian
 
        Maximum core memory set to                 28000 MB
        This corresponds to                548828 vectors in CAO basis
      ...terminated. cpu:       0.10       wall:       0.01
 
 
 
 
 CONSTRUCTING epsilon(i)*S(a,i)xi           -> RHS
      ...terminated. cpu:       0.04       wall:       0.00
 
 
 
 
 SOLVING CPHF equations
 
 Residuum convergence criterium   :  1.000000000000000E-005
 
 Maximum number of Davidson iterations set to                    25
  Switching to small grid
        preparing numerical integration ....
          Overall gridpoints after grid construction =          8650

 Calculating ground state density on molecular grid

 Integral of ground state density: N =   17.99932919377626    




                       Nonorthonormal Krylov Space Iteration


 total number of roots to be determined:  18


 maximum core memory set to 28000 MB,
 corresponding to   297456 vectors in CAO basis


 maximum number of simultaneously treated vectors (including degeneracy):       18


 Iteration IRREP Converged      Max. Euclidean
                 roots          residual norm

    1       a        0        5.154847421887169D-02
 
    2       a        0        4.208473261842404D-03
 
    3       a        0        3.209531853592094D-04
 
    4       a        8        1.821460521301394D-05
 
    5       a       18        8.954812068541026D-06
 

 converged!

  Switching to fine grid
        preparing numerical integration ....
          Overall gridpoints after grid construction =         34214

 Calculating ground state density on molecular grid

 Integral of ground state density: N =   17.99998246475092    



 Iteration IRREP Converged      Max. Euclidean
                 roots          residual norm

    6       a        0        4.990005106084315D-04
 

 NOTE: Residual norms are larger than 1.00D-05 due to mgrid option!

      ...terminated. cpu:     106.87       wall:      10.69
 
 
 
 
 CONSTRUCTING <a|x,y,z|i>*U(a,i)xi          -> Dip. deriv.
      ...terminated. cpu:       0.03       wall:       0.01
 
 
 
 
 CONSTRUCTING RHS(a,i)xi*U(a,i)chi          -> Hessian
      ...terminated. cpu:       0.01       wall:       0.00
 
 
 
 

            -----------------------
            permanent dipole moment
            -----------------------

                                   x                y                z
    electronic part       :   -0.0000000075     0.0000000176    -0.0000000009
     nuclear   part       :    0.0000000077    -0.0000000172     0.0000000009
     total                :    0.0000000002     0.0000000004     0.0000000001

 with reference to the point :   0.0000000        0.0000000        0.0000000
 (given in atomic units)
    | dipole |       :    0.0000000012  debye

   ***  dipole moment & cartesian dipole gradients written onto
        $dipole, $dipgrad,  file=<dipgrad>  ***

             -----------------------------------
             rotational and vibrational analysis
             -----------------------------------


            ==============================================================
            ATOMIC WEIGHTS (average over the natural occurance of isotops)
            ==============================================================
            ('*' denotes special isotop !)
              1     c                12.01115
              2     c                12.01115
              3     h                 1.00797
              4     h                 1.00797
              5     h                 1.00797
              6     h                 1.00797
              7     h                 1.00797
              8     h                 1.00797

          -------------------------------------------------
          CARTESIAN FORCE CONSTANT MATRIX (hartree/bohr**2)
         (translational & rotational space projected out)
          -------------------------------------------------

   ATOM              1 c                           2 c 
                  dx        dy        dz        dx        dy        dz
   1 c     dx  0.5088899
           dy  0.0480152 0.5172644
           dz -0.0000641-0.0001156 0.5615370
   2 c     dx -0.1412396 0.0578575 0.0000175 0.5088899
           dy  0.0578575-0.1316594 0.0000078 0.0480152 0.5172644
           dz  0.0000175 0.0000078-0.0784654-0.0000641-0.0001156 0.5615371
   3 h     dx -0.1914494-0.0588855-0.1132757-0.0192053-0.0073841-0.0145728
           dy -0.0598108-0.0709533-0.0460756 0.0192096 0.0070995 0.0150722
           dz -0.1138234-0.0455739-0.1378265 0.0011964 0.0005146 0.0003899
   4 h     dx -0.0765272-0.0780149 0.0294709 0.0087454 0.0244875-0.0093805
           dy -0.0769206-0.2461813 0.0761376-0.0073990-0.0202258 0.0075026
           dz  0.0291557 0.0764622-0.0777797-0.0003171-0.0008295-0.0002606
   5 h     dx -0.0793818 0.0105487 0.0838552-0.0098320 0.0033756 0.0239495
           dy  0.0103764-0.0515816-0.0299655 0.0086717-0.0037624-0.0225635
           dz  0.0847353-0.0307571-0.2694368-0.0009002 0.0002915 0.0018419
   6 h     dx -0.0098320 0.0033756 0.0239495-0.0793818 0.0105487 0.0838552
           dy  0.0086717-0.0037624-0.0225636 0.0103764-0.0515816-0.0299655
           dz -0.0009002 0.0002915 0.0018420 0.0847353-0.0307571-0.2694368
   7 h     dx  0.0087454 0.0244875-0.0093805-0.0765272-0.0780149 0.0294709
           dy -0.0073990-0.0202258 0.0075026-0.0769206-0.2461813 0.0761376
           dz -0.0003171-0.0008295-0.0002606 0.0291556 0.0764622-0.0777797
   8 h     dx -0.0192053-0.0073841-0.0145728-0.1914494-0.0588855-0.1132757
           dy  0.0192096 0.0070995 0.0150722-0.0598108-0.0709533-0.0460756
           dz  0.0011964 0.0005146 0.0003899-0.1138234-0.0455739-0.1378265

   ATOM              3 h                           4 h 
                  dx        dy        dz        dx        dy        dz
   3 h     dx  0.2103836
           dy  0.0619072 0.0756840
           dz  0.1261300 0.0508168 0.1463205
   4 h     dx -0.0086048-0.0212533 0.0095543 0.0825315
           dy -0.0033715-0.0086708 0.0030663 0.0819902 0.2704835
           dz -0.0062800-0.0183015 0.0070650-0.0325023-0.0847325 0.0796456
   5 h     dx  0.0097541-0.0025876-0.0235281-0.0047783 0.0015525 0.0105023
           dy  0.0039080-0.0021782-0.0096899-0.0098165 0.0045900 0.0277838
           dz  0.0067844-0.0016725-0.0177984 0.0029655-0.0011937-0.0100007
   6 h     dx  0.0006202-0.0010277 0.0000503 0.0011846-0.0003828-0.0005544
           dy -0.0006787 0.0009673 0.0005631-0.0009823 0.0006592-0.0002977
           dz  0.0005616-0.0001858 0.0007013 0.0001283-0.0006520 0.0004347
   7 h     dx  0.0012841-0.0008809-0.0002058-0.0038352 0.0044701-0.0000304
           dy  0.0000611 0.0011413 0.0002655 0.0044701-0.0017961-0.0003937
           dz  0.0000262 0.0003088-0.0001592-0.0000304-0.0003937 0.0010549
   8 h     dx -0.0027824 0.0044435 0.0006262 0.0012841 0.0000611 0.0000262
           dy  0.0044435-0.0030898 0.0000374-0.0008809 0.0011413 0.0003088
           dz  0.0006262 0.0000374 0.0013074-0.0002058 0.0002655-0.0001592

   ATOM              5 h                           6 h 
                  dx        dy        dz        dx        dy        dz
   5 h     dx  0.0858583
           dy -0.0156331 0.0542689
           dz -0.0936865 0.0338168 0.2924274
   6 h     dx -0.0034250 0.0041546-0.0005884 0.0858583
           dy  0.0041546-0.0029632 0.0003528-0.0156331 0.0542689
           dz -0.0005884 0.0003528 0.0018306-0.0936865 0.0338168 0.2924274
   7 h     dx  0.0011846-0.0009823 0.0001283-0.0047784-0.0098165 0.0029655
           dy -0.0003828 0.0006592-0.0006520 0.0015525 0.0045900-0.0011937
           dz -0.0005544-0.0002977 0.0004347 0.0105023 0.0277838-0.0100007
   8 h     dx  0.0006202-0.0006787 0.0005616 0.0097541 0.0039080 0.0067844
           dy -0.0010277 0.0009673-0.0001858-0.0025876-0.0021782-0.0016725
           dz  0.0000503 0.0005631 0.0007014-0.0235281-0.0096899-0.0177984

   ATOM              7 h                           8 h 
                  dx        dy        dz        dx        dy        dz
   7 h     dx  0.0825315
           dy  0.0819902 0.2704835
           dz -0.0325023-0.0847325 0.0796456
   8 h     dx -0.0086048-0.0033715-0.0062800 0.2103836
           dy -0.0212533-0.0086708-0.0183015 0.0619072 0.0756840
           dz  0.0095543 0.0030663 0.0070650 0.1261300 0.0508168 0.1463205
 

   *** projected hessian written onto $hessian (projected), file=<hessian> ***

 dipole moment in principle axis system (a.u.) :
    -0.0000000002     0.0000000004    -0.0000000001
 norm :  4.547142006346685E-010

 rotational constants b for rotations around axis of inertia
 and optical intensities for (1 <-- 0) transition

   b   :     2.6857748207     0.6668765336     0.6668810051   (cm**(-1))
   b   :       80517.5035       19992.4555       19992.5896     (MHz)
  int. :     0.0000000000     0.0000000000     0.0000000000     (a.u.)

   x   :     0.7358788527     0.6451268232    -0.2056543124
   y   :    -0.6771132211     0.7011192761    -0.2234937281
   z   :     0.0000064039     0.3037155621     0.9527627497

   ***  normal modes written onto $vibrational normal modes, file=<vib_normal_modes>  ***

 keyword $vibrational reduced masses missing in file <control>


   ***  vibrational spectroscopic data written onto$vibrational spectrum   
        file=<vibspectrum>  ***

          ---------------------------------------------------
          NORMAL MODES and VIBRATIONAL FREQUENCIES (cm**(-1))
          ---------------------------------------------------

 imaginary wave numbers indicate a negative curvature of the energy surface.
 zero frequency modes have no physical meaning except being generators of
 translations and rotations. each vibrational normal mode - given in terms of
 cartesian displacement vectors of all atoms - has been normalized to unity.
 to obtain mass-weigthed normal coordinates in a.u. divide the tabulated
 modes by sqrt(reduced mass * 1822.88853).
 band intensities or cross sections refer to independent non-degenerate normal
 modes, that is, the intensities of degenerate modes have yet to be added.
 dDIP/dQ is the normal mode derivative of the dipole moment.


       mode               1        2        3        4        5        6

     frequency           0.00     0.00     0.00     0.00     0.00     0.00

     symmetry                                                             

        IR                -        -        -        -        -        - 
|dDIP/dQ|   (a.u.)     0.0000   0.0000   0.0000   0.0000   0.0000   0.0000
intensity (km/mol)       0.00     0.00     0.00     0.00     0.00     0.00
intensity (  %   )       0.00     0.00     0.00     0.00     0.00     0.00
 
       RAMAN              -        -        -        -        -        - 
 
  1   c           x  -0.01740  0.20781  0.10056  0.00969 -0.08216  0.19853
                  y   0.25748  0.16838 -0.12347  0.00184  0.03904  0.03773
                  z  -0.00115 -0.09425  0.00822  0.00490  0.30978  0.19896
  2   c           x  -0.04509  0.10007  0.31254  0.00064  0.01876  0.01304
                  y   0.22739  0.05129  0.10690 -0.00800  0.14871 -0.16384
                  z  -0.14967  0.12443 -0.07540  0.18287  0.18519 -0.06290
  3   h           x   0.03124  0.14338  0.19247  0.21329 -0.17342  0.11083
                  y   0.43361  0.08496 -0.21177  0.12320 -0.09727  0.31445
                  z  -0.15082  0.03018 -0.06718 -0.31824  0.49497  0.17611
  4   h           x   0.04117  0.29052 -0.08213  0.13628 -0.24642  0.35423
                  y   0.33617  0.03457 -0.00467  0.06407  0.04164  0.04794
                  z   0.26299 -0.36809  0.14630  0.29093  0.15873  0.37561
  5   h           x  -0.10310  0.27327  0.02657 -0.31344  0.09491  0.27471
                  y   0.02607  0.47664 -0.33313 -0.17408  0.08743 -0.09241
                  z  -0.00020 -0.11479  0.01052 -0.09650  0.37258  0.24872
  6   h           x   0.04060  0.03461  0.38654  0.32377 -0.15830 -0.06314
                  y   0.45880 -0.25697  0.31656  0.16792  0.10032 -0.03370
                  z  -0.15062  0.14496 -0.07771  0.28427  0.12239 -0.11266
  7   h           x  -0.10367  0.01736  0.49524 -0.12595  0.18303 -0.14265
                  y   0.14870  0.18510 -0.01190 -0.07022  0.14611 -0.17405
                  z  -0.41381  0.39827 -0.21349 -0.10316  0.33624 -0.23955
  8   h           x  -0.09374  0.16450  0.22063 -0.20296  0.11003  0.10074
                  y   0.05126  0.13471  0.19519 -0.12935  0.28502 -0.44056
                  z   0.00000  0.00000  0.00000  0.50601  0.00000 -0.04005

reduced mass(g/mol)     2.579    2.202    2.551    1.378    2.779    2.234


       mode               7        8        9       10       11       12

     frequency         306.62   817.52   817.98  1000.06  1225.24  1225.49

     symmetry            a        a        a        a        a        a   

        IR               YES      YES      YES      YES      YES      YES
|dDIP/dQ|   (a.u.)     0.0000   0.0013   0.0013   0.0000   0.0000   0.0000
intensity (km/mol)       0.00     3.20     3.17     0.00     0.00     0.00
intensity (  %   )       0.00     4.32     4.29     0.00     0.00     0.00
 
       RAMAN             YES      YES      YES      YES      YES      YES
 
  1   c           x  -0.00005 -0.03181  0.00484 -0.24108 -0.09684 -0.01484
                  y  -0.00001 -0.03453  0.00528  0.22170 -0.10528 -0.01608
                  z  -0.00001  0.00716  0.04693 -0.00001 -0.02189  0.14301
  2   c           x  -0.00005 -0.03181  0.00484  0.24108  0.09684  0.01484
                  y  -0.00001 -0.03453  0.00528 -0.22170  0.10528  0.01608
                  z  -0.00001  0.00716  0.04693  0.00001  0.02189 -0.14301
  3   h           x   0.17370 -0.12733  0.27916 -0.26138 -0.23406  0.26450
                  y   0.18890  0.36748 -0.25157  0.25066  0.38087 -0.08365
                  z  -0.31762 -0.06058 -0.18855  0.00586 -0.06924 -0.19331
  4   h           x   0.09971  0.47368  0.04881 -0.27188  0.38297  0.14601
                  y   0.10797 -0.21894 -0.10784  0.23823 -0.22340 -0.20683
                  z   0.38099 -0.01072 -0.21326  0.00330  0.10200 -0.22070
  5   h           x  -0.27282  0.03271 -0.38569 -0.26509  0.17229 -0.36106
                  y  -0.29677  0.26293  0.29654  0.24598  0.19014  0.34367
                  z  -0.06329 -0.01399 -0.15745 -0.00928  0.04012 -0.05882
  6   h           x  -0.27282  0.03271 -0.38569  0.26509 -0.17229  0.36106
                  y  -0.29677  0.26293  0.29654 -0.24598 -0.19014 -0.34367
                  z  -0.06329 -0.01399 -0.15745  0.00928 -0.04012  0.05882
  7   h           x   0.09971  0.47368  0.04881  0.27188 -0.38297 -0.14601
                  y   0.10797 -0.21894 -0.10784 -0.23823  0.22340  0.20683
                  z   0.38099 -0.01072 -0.21326 -0.00330 -0.10200  0.22070
  8   h           x   0.17370 -0.12733  0.27916  0.26138  0.23406 -0.26450
                  y   0.18890  0.36748 -0.25157 -0.25066 -0.38087  0.08365
                  z  -0.31762 -0.06058 -0.18855 -0.00586  0.06924  0.19331

reduced mass(g/mol)     1.008    1.058    1.058    3.369    1.469    1.469


       mode              13       14       15       16       17       18

     frequency        1411.93  1424.67  1511.71  1512.19  1515.06  1515.56

     symmetry            a        a        a        a        a        a   

        IR               YES      YES      YES      YES      YES      YES
|dDIP/dQ|   (a.u.)     0.0005   0.0000   0.0000   0.0000   0.0022   0.0022
intensity (km/mol)       0.38     0.00     0.00     0.00     8.39     8.42
intensity (  %   )       0.52     0.00     0.00     0.00    11.35    11.40
 
       RAMAN             YES      YES      YES      YES      YES      YES
 
  1   c           x   0.06862  0.07586 -0.01486 -0.00152 -0.03366 -0.00232
                  y  -0.06309 -0.06989 -0.01624 -0.00147 -0.03668 -0.00234
                  z  -0.00007 -0.00000  0.00216 -0.02204  0.00329 -0.04979
  2   c           x   0.06861 -0.07586  0.01486  0.00152 -0.03366 -0.00232
                  y  -0.06309  0.06989  0.01623  0.00147 -0.03668 -0.00234
                  z  -0.00007  0.00000 -0.00216  0.02204  0.00329 -0.04979
  3   h           x  -0.18673 -0.18083  0.25384 -0.03922  0.22380 -0.09199
                  y   0.34392  0.34508 -0.02847 -0.34445  0.00022 -0.32590
                  z   0.10308  0.10694 -0.31652  0.21798 -0.32792  0.24378
  4   h           x  -0.37504 -0.37620 -0.24488  0.18977 -0.19332  0.19192
                  y   0.13848  0.13151  0.14754  0.09283  0.10703  0.10983
                  z   0.05937  0.06131  0.15989  0.42584  0.18436  0.44738
  5   h           x  -0.25586 -0.25244  0.36498 -0.11261  0.37062 -0.07233
                  y   0.26945  0.26783  0.28860  0.29152  0.32987  0.24399
                  z  -0.16161 -0.16764  0.10146 -0.09054  0.10432 -0.09790
  6   h           x  -0.25586  0.25245 -0.36496  0.11261  0.37064 -0.07234
                  y   0.26945 -0.26783 -0.28859 -0.29151  0.32988  0.24400
                  z  -0.16161  0.16764 -0.10146  0.09054  0.10433 -0.09790
  7   h           x  -0.37503  0.37621  0.24487 -0.18976 -0.19333  0.19193
                  y   0.13848 -0.13152 -0.14754 -0.09282  0.10703  0.10984
                  z   0.05937 -0.06131 -0.15988 -0.42582  0.18437  0.44740
  8   h           x  -0.18673  0.18083 -0.25384  0.03922  0.22381 -0.09199
                  y   0.34392 -0.34508  0.02847  0.34444  0.00022 -0.32591
                  z   0.10308 -0.10694  0.31651 -0.21796 -0.32793  0.24379

reduced mass(g/mol)     1.199    1.242    1.019    1.019    1.063    1.063


       mode              19       20       21       22       23       24

     frequency        3025.80  3026.04  3072.25  3073.05  3098.31  3099.12

     symmetry            a        a        a        a        a        a   

        IR               YES      YES      YES      YES      YES      YES
|dDIP/dQ|   (a.u.)     0.0000   0.0061   0.0000   0.0000   0.0064   0.0064
intensity (km/mol)       0.00    65.31     0.00     0.00    73.89    73.57
intensity (  %   )       0.00    88.40     0.00     0.00   100.00    99.56
 
       RAMAN             YES      YES      YES      YES      YES      YES
 
  1   c           x   0.02660 -0.02541 -0.03018  0.03148 -0.03064  0.03185
                  y  -0.02355  0.02278 -0.03332  0.03455 -0.03362  0.03483
                  z   0.00018 -0.00011 -0.04676 -0.04498 -0.04720 -0.04550
  2   c           x  -0.02660 -0.02541  0.03018 -0.03148 -0.03064  0.03185
                  y   0.02355  0.02278  0.03332 -0.03455 -0.03362  0.03483
                  z  -0.00018 -0.00011  0.04676  0.04498 -0.04720 -0.04550
  3   h           x  -0.30768  0.30498  0.42771 -0.04453  0.43006 -0.04616
                  y  -0.12804  0.12942  0.16779 -0.01194  0.16577 -0.01311
                  z  -0.24450  0.24385  0.33075 -0.05496  0.33140 -0.05273
  4   h           x   0.13936 -0.14212  0.07057 -0.17689  0.06994 -0.17391
                  y   0.35235 -0.35299  0.19563 -0.47143  0.19600 -0.47123
                  z  -0.13618  0.13711 -0.09206  0.17219 -0.08905  0.17263
  5   h           x  -0.14131  0.13997 -0.13613 -0.15632 -0.13490 -0.15943
                  y   0.04953 -0.04788  0.03620  0.06897  0.03885  0.06927
                  z   0.37857 -0.37970  0.32209  0.42222  0.32015  0.42226
  6   h           x   0.14132  0.13995  0.13613  0.15632 -0.13490 -0.15943
                  y  -0.04953 -0.04787 -0.03620 -0.06897  0.03885  0.06927
                  z  -0.37860 -0.37966 -0.32209 -0.42222  0.32015  0.42226
  7   h           x  -0.13937 -0.14211 -0.07057  0.17688  0.06994 -0.17391
                  y  -0.35238 -0.35296 -0.19563  0.47143  0.19600 -0.47123
                  z   0.13619  0.13710  0.09206 -0.17219 -0.08905  0.17263
  8   h           x   0.30771  0.30496 -0.42771  0.04453  0.43006 -0.04616
                  y   0.12805  0.12941 -0.16779  0.01194  0.16577 -0.01311
                  z   0.24452  0.24383 -0.33075  0.05496  0.33140 -0.05273

reduced mass(g/mol)     1.036    1.034    1.101    1.101    1.103    1.103
 

         **************************************************************
         *                                                            *
         *  zero point VIBRATIONAL energy  :      0.0744473  Hartree  *
         *    SCF-energy                   :    -79.8694208           *
         *    SCF + E(vib0)                :    -79.7949734           *
         *                                                            *
         **************************************************************




 time elapsed for vibrational analysis     0.36 sec


    ------------------------------------------------------------------------
         total  cpu-time :  3 minutes and 23 seconds
         total wall-time :  22.95 seconds
    ------------------------------------------------------------------------

   ****  force : all done  ****


    2020-06-19 04:06:52.350 

