           Doing BLAS/Lapack in the master proc. with 16 CPUs.
           SMPCPUS    set: Shared-memory Parallelization with  28 CPUs.

           SMP Parallelization Reference:
           C. van Wullen, J. Comput. Chem. 32 (2011) 1195--1201

 force (c-19-412) : TURBOMOLE V7.2 ( 21454 ) 4 Oct 2017 at 12:48:15
 Copyright (C) 2017 TURBOMOLE GmbH, Karlsruhe


    2020-06-23 22:08:36.735 



                             T U R B O M O L E   

                          a o f o r c e - program

                        using direct algorithms for

                       SCF level calculations of
                         * harmonic force constants
                         * hyperpolarizabilities
                         * IR and RAMAN intensities
                         * VCD intensities

                       DFT level calculations of
                         * harmonic force constants
                         * IR intensities
                                                   
       Stephan Boecker, Peter Deglmann, Filipp Furche and Marco Haeser
                          Quantum Chemistry Group
                          Universitaet  Karlsruhe
                                   Germany

 
 
 
 
     References :
 
       RI-J implementation:
         Peter Deglmann, Klaus May, Filipp Furche, Reinhart Ahlrichs
                 Chem. Phys. Lett. 384:103 (2004)
 
       Efficiency, technical details:
         Peter Deglmann, Filipp Furche, Reinhart Ahlrichs
                 Chem. Phys. Lett. 362:511 (2002)
 
       Search of lowest eigenvalues by iterative diagonalization:
         Peter Deglmann, Filipp Furche
                 J. Chem. Phys. 117:9535 (2002)
 
       Vibrational circular dichroism implementation:
        Kevin Reiter, Michael Kuehn, Florian Weigend
                 J. Chem. Phys. 146:054102 (2017)  
 
 


              +--------------------------------------------------+
              | Atomic coordinate, charge and isotop information |
              +--------------------------------------------------+

                    atomic coordinates            atom    charge  isotop
         -2.89433962    3.83210185   -2.21550462    c      6.000     0
         -1.08061852    4.30658338   -0.01990148    c      6.000     0
          2.04232056   -2.68059785    1.53924862    c      6.000     0
          3.81504233   -2.25540759    3.77765437    c      6.000     0
         -0.93786595    7.07778429    0.77590162    c      6.000     0
          0.81269937    3.64597904   -0.54227764    h      1.000     0
         -1.65845386    3.15708530    1.60476775    h      1.000     0
          0.88063510    7.54007283    2.96990088    c      6.000     0
         -2.83091597    7.73768411    1.30413193    h      1.000     0
         -0.35807011    8.22820206   -0.84844813    h      1.000     0
          1.02731475   10.30980031    3.77403082    c      6.000     0
          2.77295744    6.87956044    2.44226798    h      1.000     0
          0.30435660    6.38627676    4.59238479    h      1.000     0
          2.85258086   10.75082438    5.96652946    c      6.000     0
         -0.86519913   10.96460656    4.30388233    h      1.000     0
          1.60320530   11.45926161    2.14976161    h      1.000     0
          2.28685141    9.66410680    7.63117362    h      1.000     0
          2.92086705   12.74372089    6.50425013    h      1.000     0
          4.76946126   10.16402325    5.46326336    h      1.000     0
         -3.02450569    1.05617434   -2.99649799    c      6.000     0
         -2.31442913    4.97681223   -3.84375684    h      1.000     0
         -4.79030770    4.48862661   -1.69384501    h      1.000     0
         -4.82961836    0.55575406   -5.19296720    c      6.000     0
         -3.60066824   -0.08549649   -1.36564961    h      1.000     0
         -1.12677364    0.40120833   -3.50951484    h      1.000     0
         -4.93777215   -2.22771464   -5.95452825    c      6.000     0
         -4.25379247    1.69227043   -6.82877728    h      1.000     0
         -6.73210232    1.20237961   -4.68162694    h      1.000     0
         -6.73772735   -2.73780025   -8.15125929    c      6.000     0
         -5.50799183   -3.35692978   -4.31519159    h      1.000     0
         -3.03394673   -2.86757640   -6.45579095    h      1.000     0
         -8.66839598   -2.17321684   -7.67437123    h      1.000     0
         -6.76893609   -4.74228731   -8.64891901    h      1.000     0
         -6.17323224   -1.67656500   -9.83316098    h      1.000     0
          3.93172351    0.49964504    4.63246912    c      6.000     0
          3.20775566   -3.44024018    5.36685886    h      1.000     0
          5.72083584   -2.89785232    3.27425173    h      1.000     0
          5.70429676    0.93128575    6.87114651    c      6.000     0
          2.02669480    1.14328416    5.13427938    h      1.000     0
          4.53522446    1.68590381    3.04361499    h      1.000     0
          5.80395979    3.69100496    7.71078842    c      6.000     0
          7.60780359    0.29019932    6.36432945    h      1.000     0
          5.09754051   -0.25559618    8.45682513    h      1.000     0
          1.91671209   -5.43419646    0.68020799    c      6.000     0
          2.64912352   -1.49544023   -0.04880853    h      1.000     0
          0.13903752   -2.03289373    2.04072298    h      1.000     0
          0.14007260   -5.84573597   -1.55783024    c      6.000     0
          1.30608125   -6.61994203    2.26736775    h      1.000     0
          3.81979284   -6.08235646    0.17415193    h      1.000     0
          0.00134473   -8.59495952   -2.42696729    c      6.000     0
          0.75081623   -4.65741071   -3.14200369    h      1.000     0
         -1.75939317   -5.19123406   -1.05154947    h      1.000     0
         -1.77995851   -8.99864475   -4.66489148    c      6.000     0
         -0.61121014   -9.78498166   -0.84334535    h      1.000     0
          1.90090857   -9.24983400   -2.93886784    h      1.000     0
         -1.90415670  -11.75171513   -5.52266370    c      6.000     0
         -1.16853988   -7.80642421   -6.24423925    h      1.000     0
         -3.67659182   -8.34511066   -4.15110249    h      1.000     0
         -0.03968176  -12.43093783   -6.10233677    h      1.000     0
         -3.18902588  -11.98833571   -7.12231918    h      1.000     0
         -2.56655653  -12.97391744   -3.99258124    h      1.000     0
          6.45694990    4.90926848    6.17455199    h      1.000     0
          7.08275216    3.95007726    9.31170784    h      1.000     0
          3.93305913    4.35978313    8.27907202    h      1.000     0
 
       center of nuclear mass  :   -0.00040830    0.00093799   -0.00019850
       center of nuclear charge:   -0.00032194    0.00073961   -0.00015652

              +--------------------------------------------------+
              |               basis set information              |
              +--------------------------------------------------+

              we will work with the 1s 3p 5d 7f 9g ... basis set
              ...i.e. with spherical basis functions...

   type   atoms  prim   cont   basis
   ---------------------------------------------------------------------------
    c       20     46     31   def2-TZVP   [5s3p2d1f|11s6p2d1f]
    h       44      8      6   def2-TZVP   [3s1p|5s1p]
   ---------------------------------------------------------------------------
   total:   64   1272    884
   ---------------------------------------------------------------------------

   total number of primitive shells          :   26
   total number of contracted shells         :  396
   total number of cartesian basis functions :  984
   total number of SCF-basis functions       :  884

 
             FOUND RI-J FLAG !
 

 NOTE: THIS IS A PRELIMINARY IMPLEMENTATION. THE RI APPROXIMATION IS
       PRESENTLY USED FOR CPKS CONTRIBUTIONS TO THE HESSIAN ONLY! SEE
       MANUAL FOR FURTHER DETAILS.

  
 AUXILIARY BASIS SET information:

              we will work with the 1s 3p 5d 7f 9g ... basis set
              ...i.e. with spherical basis functions...

   type   atoms  prim   cont   basis
   ---------------------------------------------------------------------------
    c       20     70     49   def2-TZVP   [6s4p3d1f1g|12s5p4d2f1g]
    h       44     16     11   def2-TZVP   [3s1p1d|5s2p1d]
   ---------------------------------------------------------------------------
   total:   64   2104   1464
   ---------------------------------------------------------------------------

   total number of primitive shells          :   32
   total number of contracted shells         :  520
   total number of cartesian basis functions : 1748
   total number of SCF-basis functions       : 1464


 symmetry group of the molecule :   c1 

 the group has the following generators :
   c1(z)

    1 symmetry operations found

 there are 1 real representations :   a   

 maximum number of shells which are related by symmetry :  1


 determining totally symmetric integral contributions 
    - equivalent to irreducible tensor elements - 
 which can be formed within each triple of representations :

             representation triple      contributions

              a     a     a               1

    mo occupation :
   irrep   mo's   occupied
    a      884       82
 
 number of basis functions   :                    884
 number of occupied orbitals :                     82
 
  MOs are in ASCII format !


 reading orbital data $scfmo  from file mos
 orbital characterization : scfconv=7
 time elapsed for calculating density matrices :   0.054 sec

 number of non-frozen orbitals          :   884
 number of non-frozen occupied orbitals :    82
 Blocking parameters 
 shells:
    index      start shell   last shell  start bf    last bf    #bf 
       1             1         396             1        984    984
  
           ----------------------
               RI - INFORMATION
           ----------------------

 biggest AO integral is expected to be     5.725698708

 Threshold for integral neglect (rithr2):   0.25E-11
 Threshold for integral neglect (rithr1):   0.25E-11

 Contributions to RI integral batches: 
  neglected integral batches:                 31371
  direct contribution:                            0
  memory contribution:                 47235
 Core memory available (ricore):             55000 MiB
 Core memory needed for (P|Q) and Cholesky:     17 MiB
 Core memory used for integrals:              3655 MiB
 
 ****************************************
 Memory allocated for RIDFT: 3672 MiB
 ****************************************
 
  
           ------------------
           density functional
           ------------------
 TPSS global hybrid functional
 exchange:    9/10 (LDA+TPSS) + 1/10 HF
 correlation: LDA (PW) + TPSS

 spherical integration : Lebedev's spherical grid
 spherical gridsize    :                     4
    i.e. gridpoints    :                   434
 value for diffuse not defined
 radial integration    : Chebyshev 2nd kind (scaling 3)
 radial gridsize       :                     6
 integration cells     :                    64
 partition function    : becke
 partition sharpness   :                     3
  
 
 Derivatives of quadrature weights will be included
 
          Overall gridpoints after grid construction =        555442
 Ordering of quadrature gridpoints disabled.
 
 
 
 
 OCCUPIED-OCCUPIED TENSOR SPACES :

          IRREP   tensor space dimension   number of roots

           a              6724                 186
 
 OCCUPIED-VIRTUAL TENSOR SPACES :

          IRREP   tensor space dimension   number of roots

           a             65764                 186
 
 
 
 
 CONSTRUCTING integral bounds

 setting up bound for integral derivative estimation

 increment for numerical differentiation : 0.00050000
 
 machine precision:   2.220446049250313E-016

 integral neglect threshold       :  0.10E-09
 integral storage threshold THIZE :  0.10E-04
 integral storage threshold THIME :         5

 
 
 
 PREPARING NUMERICAL INTEGRATION
 
 Remaining core memory for DFT =                 93738 MB
 
 Memory needed per atom    =                 11358 KiB
 
     i. e.                    64 atoms per loop

 Calculating ground state density on molecular grid

 Integral of ground state density: N =   163.9998928159592    


 
 
 CONSTRUCTING first deriv. of <mu|x,y,z|nu> -> Dip. deriv.
  dipole integral derivatives will be neglected if
  expon. factor <0.508130E-12
      ...terminated. cpu:       3.01       wall:       0.11
 
 
 
 
 CONSTRUCTING first deriv. of  <mu|nu>
                               <mu|h|nu>    -> RHS
              second deriv. of <mu|nu>      -> Hessian
                               <mu|h|nu>    -> Hessian
                               nucl. rep.   -> Hessian
     integrals are neglected if expon. factor <  5.081300813008130E-014
  _________________________________
 |                                 |
 |         DFTD3 V3.1 Rev 0        |
 | S.Grimme, University Bonn       |
 |         June 2014               |
 |   see standalone version        |
 |       dftd3 -h for options      |
 |_________________________________|
 
 Please cite DFT-D3 work done with this code as:
 S. Grimme, J. Antony, S. Ehrlich and H. Krieg,
 J. Chem. Phys, 132 (2010), 154104.
 If used with BJ-damping cite also
 S. Grimme, S. Ehrlich and L. Goerigk,
 J. Comput. Chem. 32 (2011), 1456-1465
 For DFT-D2 the reference is
 S. Grimme, J. Comput. Chem., 27 (2006), 1787-1799
 
      ...terminated. cpu:     170.28       wall:      17.17
 
 
 
 
 CONSTRUCTING second deriv. of 2e energy    -> Hessian
   treating Coulomb (and exchange) contribution
     integrals will be neglected if total contribution <  5.081300813008130E-010
      ...terminated. cpu:    4033.54       wall:     146.12
   treating exchange-correlation contribution
      ...terminated. cpu:    2929.68       wall:     105.96
 
 
 
 
 CONSTRUCTING S(i,j)xi
      ...terminated. cpu:       1.55       wall:       0.21
 
 
 
 
 CONSTRUCTING <i|x,y,z|j>*S(i,j)xi          -> Dip. deriv.
      ...terminated. cpu:       3.19       wall:       0.15
 
 
 
 
 CONSTRUCTING epsilon(i)*S(i,j)xi*S(i,j)chi -> Hessian
      ...terminated. cpu:       0.43       wall:       0.02
 
 
 
 
 CONSTRUCTING G(a,i)[S(k,l)xi]              -> RHS
              G(i,j)[S(k,l)xi]*S(i,j)chi    -> Hessian
 
         Maximum core memory set to                  98000 MB
         This corresponds to                 13203 vectors in CAO basis
      ...terminated. cpu:   47454.01       wall:    1697.92
 
 
 
 
 CONSTRUCTING G(mu,nu)[D(kap,lam)]xi
 
          Maximum core memory set to                  98000 MB
          Atoms treated simultaneously :                    64
      ...terminated. cpu:   12044.72       wall:     432.44
 
 
 
 
 CONSTRUCTING F(a,i)xi                      -> RHS
              F(i,j)xi*S(i,j)chi            -> Hessian
 
        Maximum core memory set to                 98000 MB
        This corresponds to                 23338 vectors in CAO basis
      ...terminated. cpu:     279.79       wall:      29.90
 
 
 
 
 CONSTRUCTING epsilon(i)*S(a,i)xi           -> RHS
      ...terminated. cpu:      10.08       wall:       3.89
 
 
 
 
 SOLVING CPHF equations
 
 Residuum convergence criterium   :  1.000000000000000E-005
 
 Maximum number of Davidson iterations set to                    25


                       Nonorthonormal Krylov Space Iteration


 total number of roots to be determined: 186


 maximum core memory set to 98000 MB,
 corresponding to    13179 vectors in CAO basis


 maximum number of simultaneously treated vectors (including degeneracy):      186


 Iteration IRREP Converged      Max. Euclidean
                 roots          residual norm

    1       a        0        5.319370350201191D-02
 
    2       a        0        4.633236954364796D-03
 
    3       a        0        2.996813130508791D-04
 
    4       a      152        1.493338876504795D-05
 
    5       a      186        9.901575285654164D-06
 

 converged!

      ...terminated. cpu:  151140.59       wall:    5409.00
 
 
 
 
 CONSTRUCTING <a|x,y,z|i>*U(a,i)xi          -> Dip. deriv.
      ...terminated. cpu:       6.52       wall:       0.23
 
 
 
 
 CONSTRUCTING RHS(a,i)xi*U(a,i)chi          -> Hessian
      ...terminated. cpu:       4.37       wall:       0.16
 
 
 
 

            -----------------------
            permanent dipole moment
            -----------------------

                                   x                y                z
    electronic part       :    0.0578013426    -0.1184970007     0.0318527025
     nuclear   part       :   -0.0527987950     0.1212952259    -0.0256685977
     total                :    0.0050025475     0.0027982252     0.0061841048

 with reference to the point :   0.0000000        0.0000000        0.0000000
 (given in atomic units)
    | dipole |       :    0.0214321793  debye

   ***  dipole moment & cartesian dipole gradients written onto
        $dipole, $dipgrad,  file=<dipgrad>  ***

             -----------------------------------
             rotational and vibrational analysis
             -----------------------------------


            ==============================================================
            ATOMIC WEIGHTS (average over the natural occurance of isotops)
            ==============================================================
            ('*' denotes special isotop !)
              1     c                12.01115
              2     c                12.01115
              3     c                12.01115
              4     c                12.01115
              5     c                12.01115
              6     h                 1.00797
              7     h                 1.00797
              8     c                12.01115
              9     h                 1.00797
             10     h                 1.00797
             11     c                12.01115
             12     h                 1.00797
             13     h                 1.00797
             14     c                12.01115
             15     h                 1.00797
             16     h                 1.00797
             17     h                 1.00797
             18     h                 1.00797
             19     h                 1.00797
             20     c                12.01115
             21     h                 1.00797
             22     h                 1.00797
             23     c                12.01115
             24     h                 1.00797
             25     h                 1.00797
             26     c                12.01115
             27     h                 1.00797
             28     h                 1.00797
             29     c                12.01115
             30     h                 1.00797
             31     h                 1.00797
             32     h                 1.00797
             33     h                 1.00797
             34     h                 1.00797
             35     c                12.01115
             36     h                 1.00797
             37     h                 1.00797
             38     c                12.01115
             39     h                 1.00797
             40     h                 1.00797
             41     c                12.01115
             42     h                 1.00797
             43     h                 1.00797
             44     c                12.01115
             45     h                 1.00797
             46     h                 1.00797
             47     c                12.01115
             48     h                 1.00797
             49     h                 1.00797
             50     c                12.01115
             51     h                 1.00797
             52     h                 1.00797
             53     c                12.01115
             54     h                 1.00797
             55     h                 1.00797
             56     c                12.01115
             57     h                 1.00797
             58     h                 1.00797
             59     h                 1.00797
             60     h                 1.00797
             61     h                 1.00797
             62     h                 1.00797
             63     h                 1.00797
             64     h                 1.00797

          -------------------------------------------------
          CARTESIAN FORCE CONSTANT MATRIX (hartree/bohr**2)
         (translational & rotational space projected out)
          -------------------------------------------------

   ATOM              1 c                           2 c 
                  dx        dy        dz        dx        dy        dz
   1 c     dx  0.5412748
           dy -0.0146494 0.4892445
           dz -0.0463285-0.0370842 0.5166962
   2 c     dx -0.1208794-0.0064557-0.0508918 0.5418433
           dy -0.0063188-0.0777808-0.0073435-0.0143208 0.4904225
           dz -0.0508573-0.0075214-0.1381552-0.0462265-0.0365375 0.5174626
   3 c     dx -0.0002654-0.0000793 0.0001692 0.0007068 0.0001545-0.0007494
           dy -0.0000946-0.0000798-0.0000443 0.0001750-0.0001066-0.0001133
           dz  0.0001420-0.0000529-0.0002330-0.0007281-0.0000917 0.0004582
   4 c     dx  0.0001008 0.0000339-0.0000765-0.0002665-0.0000884 0.0001603
           dy  0.0000407 0.0000939 0.0000302-0.0001008-0.0000801-0.0000282
           dz -0.0000623 0.0000371 0.0000969 0.0001427-0.0000495-0.0002150
   5 c     dx -0.0015497-0.0232255-0.0057246-0.0774576-0.0003246 0.0004507
           dy -0.0043294-0.0060132-0.0060839-0.0002337-0.1770732-0.0228519
           dz -0.0014271-0.0278011-0.0091425 0.0004702-0.0229737-0.0825483
   6 h     dx -0.0217248 0.0059729 0.0049560-0.2528981 0.0687400 0.0608319
           dy -0.0047611 0.0007930 0.0013494 0.0689190-0.0700494-0.0188574
           dz -0.0257816 0.0072243 0.0055063 0.0607760-0.0187757-0.0654543
   7 h     dx  0.0054326 0.0114551-0.0188287-0.0700216-0.0389690 0.0578447
           dy  0.0015726 0.0020498-0.0041294-0.0390498-0.1198923 0.1055455
           dz  0.0072016 0.0137001-0.0229357 0.0578679 0.1054044-0.1981768
   8 c     dx -0.0005040 0.0011373 0.0004699-0.0016431-0.0043958-0.0014993
           dy  0.0011398-0.0071921-0.0001555-0.0233073-0.0059816-0.0278216
           dz  0.0004815-0.0001783-0.0001899-0.0058184-0.0061322-0.0093001
   9 h     dx  0.0006671-0.0002196-0.0001629 0.0006837-0.0003594-0.0004645
           dy  0.0015083 0.0013379 0.0010313 0.0307564-0.0127477-0.0105520
           dz  0.0012915 0.0003392 0.0003894 0.0082432-0.0031100-0.0033936
  10 h     dx  0.0000539-0.0000878 0.0008525-0.0009522-0.0005492 0.0009208
           dy  0.0005749 0.0012118 0.0019347-0.0109792-0.0209529 0.0257513
           dz -0.0000570-0.0001436 0.0011338-0.0030669-0.0054237 0.0065136
  11 c     dx  0.0007708-0.0015861-0.0002620-0.0036212 0.0006916-0.0031820
           dy  0.0001943 0.0007462 0.0002339 0.0007528-0.0000341 0.0010251
           dz  0.0001428-0.0018008 0.0004381-0.0031558 0.0009513-0.0041347
  12 h     dx  0.0003675-0.0002328-0.0002692 0.0003052 0.0011802 0.0011129
           dy -0.0001131 0.0000320-0.0000428-0.0008023 0.0008015 0.0005978
           dz -0.0001190 0.0002037-0.0000641-0.0000328 0.0011814 0.0012712
  13 h     dx -0.0000560 0.0002309-0.0000889 0.0007438 0.0009595 0.0004166
           dy  0.0000021 0.0001664-0.0001796 0.0005046 0.0010137-0.0005771
           dz -0.0002642-0.0003045 0.0002260 0.0010411 0.0016741 0.0006461
  14 c     dx -0.0000477 0.0001236-0.0000086 0.0006365 0.0002399 0.0000413
           dy  0.0001812-0.0009264 0.0000089-0.0015863 0.0006554-0.0018234
           dz  0.0000108-0.0000599-0.0000211-0.0003848 0.0002727 0.0002736
  15 h     dx -0.0000440 0.0001024 0.0000240 0.0004871-0.0001139 0.0000156
           dy -0.0001065 0.0000433 0.0000335-0.0001697-0.0001060 0.0001533
           dz -0.0000051-0.0000160-0.0000066-0.0002513-0.0000648-0.0000109
  16 h     dx -0.0000105-0.0000432 0.0000129-0.0000125 0.0000234-0.0002607
           dy  0.0000313 0.0000405-0.0000830 0.0001902 0.0000123-0.0003024
           dz  0.0000120 0.0001208-0.0000371 0.0000257-0.0002153 0.0003685
  17 h     dx -0.0000001 0.0000351 0.0000052 0.0000067-0.0000584 0.0001309
           dy -0.0000168 0.0000365-0.0000007 0.0000449-0.0000322 0.0000669
           dz  0.0000165-0.0000107 0.0000095-0.0000538-0.0000255 0.0000351
  18 h     dx  0.0000584-0.0002235 0.0000183-0.0003956 0.0001424-0.0004252
           dy  0.0000561-0.0001282 0.0000359-0.0001645 0.0001399-0.0001582
           dz  0.0000822-0.0002842 0.0000277-0.0004943 0.0001942-0.0005214
  19 h     dx  0.0000108-0.0000248 0.0000161 0.0000143 0.0000044-0.0000619
           dy -0.0000028 0.0000269-0.0000085 0.0000427-0.0000205 0.0000315
           dz -0.0000023 0.0000398 0.0000081 0.0001549-0.0000378 0.0000157
  20 c     dx -0.0774835 0.0002634 0.0005908-0.0015731-0.0232865-0.0057382
           dy  0.0000787-0.1773611-0.0225376-0.0043941-0.0063454-0.0062208
           dz  0.0005472-0.0223174-0.0822996-0.0014421-0.0279294-0.0092130
  21 h     dx -0.0704747-0.0388019 0.0582276 0.0055038 0.0114457-0.0188019
           dy -0.0384691-0.1190303 0.1047539 0.0015753 0.0020423-0.0041700
           dz  0.0578655 0.1049323-0.1983589 0.0072765 0.0137028-0.0229395
  22 h     dx -0.2524517 0.0682176 0.0604044-0.0217518 0.0059945 0.0050406
           dy  0.0678934-0.0698042-0.0182964-0.0047790 0.0007771 0.0013335
           dz  0.0607716-0.0184924-0.0654309-0.0257505 0.0072192 0.0055878
  23 c     dx -0.0013618-0.0042843-0.0011689-0.0005136 0.0011749 0.0004741
           dy -0.0231906-0.0062176-0.0278646 0.0011602-0.0071845-0.0001392
           dz -0.0054691-0.0060911-0.0088919 0.0004637-0.0001082-0.0001924
  24 h     dx -0.0008894-0.0003980 0.0007958 0.0000702-0.0000963 0.0008281
           dy -0.0109347-0.0209573 0.0258268 0.0005883 0.0011679 0.0019465
           dz -0.0029786-0.0052777 0.0063773-0.0000794-0.0001388 0.0011433
  25 h     dx  0.0006195-0.0003045-0.0004107 0.0006940-0.0002091-0.0001792
           dy  0.0307936-0.0128146-0.0103815 0.0015205 0.0013150 0.0010244
           dz  0.0080716-0.0030448-0.0032776 0.0012678 0.0003219 0.0004063
  26 c     dx -0.0035991 0.0006411-0.0031865 0.0007560-0.0015987-0.0002481
           dy  0.0006672 0.0000010 0.0009460 0.0001868 0.0007084 0.0002309
           dz -0.0031907 0.0009043-0.0041806 0.0001612-0.0018263 0.0004241
  27 h     dx  0.0007027 0.0009452 0.0004271-0.0000485 0.0002386-0.0000816
           dy  0.0005229 0.0010271-0.0005448-0.0000018 0.0001672-0.0001782
           dz  0.0010552 0.0016666 0.0006595-0.0002887-0.0003129 0.0002356
  28 h     dx  0.0003090 0.0011685 0.0011479 0.0003818-0.0002397-0.0002904
           dy -0.0007733 0.0008277 0.0006547-0.0001066 0.0000348-0.0000531
           dz -0.0000059 0.0011880 0.0012470-0.0001059 0.0002093-0.0000610
  29 c     dx  0.0006681 0.0002395 0.0000562-0.0000505 0.0001312-0.0000063
           dy -0.0015653 0.0006413-0.0018179 0.0001893-0.0009256 0.0000150
           dz -0.0003582 0.0002619 0.0003111 0.0000060-0.0000435-0.0000235
  30 h     dx -0.0000145 0.0000351-0.0002478 0.0000008-0.0000501 0.0000179
           dy  0.0001811 0.0000074-0.0002885 0.0000417 0.0000450-0.0000848
           dz  0.0000303-0.0002187 0.0003556 0.0000022 0.0001267-0.0000374
  31 h     dx  0.0004645-0.0001191 0.0000132-0.0000416 0.0001069 0.0000127
           dy -0.0001491-0.0001081 0.0001434-0.0001104 0.0000521 0.0000353
           dz -0.0002366-0.0000531-0.0000093-0.0000027-0.0000226 0.0000055
  32 h     dx  0.0000065-0.0000059-0.0000555 0.0000114-0.0000189 0.0000098
           dy  0.0000497-0.0000228 0.0000310-0.0000022 0.0000290-0.0000107
           dz  0.0001491-0.0000345 0.0000111-0.0000033 0.0000370 0.0000081
  33 h     dx -0.0003892 0.0001290-0.0004180 0.0000595-0.0002192 0.0000203
           dy -0.0001881 0.0001450-0.0001836 0.0000648-0.0001409 0.0000430
           dz -0.0004920 0.0001816-0.0005271 0.0000856-0.0002840 0.0000315
  34 h     dx  0.0000010-0.0000525 0.0001269 0.0000022 0.0000316 0.0000041
           dy  0.0000406-0.0000338 0.0000750-0.0000187 0.0000365 0.0000004
           dz -0.0000463-0.0000335 0.0000296 0.0000084-0.0000060 0.0000104
  35 c     dx -0.0002548-0.0000700 0.0001852 0.0007336 0.0001932-0.0007184
           dy -0.0000220 0.0001431 0.0001037 0.0002070-0.0001411-0.0001269
           dz  0.0001784 0.0000883-0.0001583-0.0006878-0.0001205 0.0004807
  36 h     dx -0.0000207-0.0000197 0.0000069 0.0000440 0.0000335-0.0000310
           dy  0.0000135-0.0000282-0.0000425-0.0000927 0.0000312 0.0000849
           dz -0.0000211-0.0000126 0.0000149 0.0001109 0.0000031-0.0000202
  37 h     dx  0.0000215 0.0000041-0.0000138-0.0000327-0.0000367 0.0000990
           dy -0.0000333-0.0000376 0.0000003 0.0000803 0.0000549-0.0000511
           dz  0.0000060-0.0000247-0.0000240-0.0000216 0.0000296 0.0000419
  38 c     dx  0.0000745 0.0000022-0.0000656-0.0002537-0.0000105 0.0001871
           dy  0.0000050-0.0001352-0.0000590-0.0000683 0.0001520 0.0000772
           dz -0.0000588-0.0000631 0.0000410 0.0001726 0.0001070-0.0001682
  39 h     dx  0.0000803 0.0000969 0.0000005-0.0002833-0.0000745 0.0000916
           dy  0.0000063 0.0000056 0.0000103-0.0000131 0.0000157-0.0001003
           dz -0.0000992-0.0001570 0.0000020 0.0002668 0.0002138-0.0001932
  40 h     dx  0.0000758-0.0001145-0.0001505-0.0003124 0.0000943 0.0003444
           dy  0.0000301-0.0000352-0.0000474-0.0001530 0.0000254 0.0001156
           dz -0.0000273 0.0000418 0.0000794 0.0000869 0.0000277-0.0002443
  41 c     dx -0.0000311-0.0000049 0.0000098 0.0000958 0.0000124-0.0000451
           dy  0.0000039-0.0000221 0.0000109 0.0000091 0.0000321-0.0000072
           dz  0.0000109 0.0000096-0.0000124-0.0000383-0.0000228 0.0000818
  42 h     dx  0.0000288 0.0000405 0.0000097-0.0000573-0.0000673 0.0000560
           dy -0.0000077 0.0000178-0.0000014 0.0000226-0.0000286 0.0000003
           dz  0.0000204 0.0000377-0.0000075-0.0000565-0.0000546 0.0000504
  43 h     dx -0.0000176 0.0000154 0.0000200 0.0000584-0.0000123-0.0000536
           dy -0.0000072 0.0000153-0.0000076-0.0000011-0.0000279 0.0000203
           dz -0.0000099 0.0000394 0.0000411 0.0000950-0.0000499-0.0000706
  44 c     dx  0.0001340 0.0000398-0.0000360-0.0001604-0.0000197 0.0002672
           dy  0.0000422 0.0000266 0.0000124-0.0000100-0.0000318 0.0000771
           dz -0.0000278 0.0000249 0.0001350 0.0003016 0.0000386-0.0000787
  45 h     dx  0.0000817 0.0000688-0.0000787-0.0003132-0.0001102 0.0001343
           dy  0.0000564 0.0000326 0.0000209 0.0000691-0.0001272 0.0000300
           dz -0.0000480 0.0000157 0.0001083 0.0004043 0.0001020-0.0001817
  46 h     dx  0.0000915 0.0000199-0.0000262-0.0002128-0.0000074 0.0003381
           dy  0.0000521 0.0000316 0.0000497-0.0000298 0.0000083 0.0001683
           dz -0.0000379 0.0000669 0.0000675 0.0000858-0.0001379-0.0001260
  47 c     dx -0.0001690-0.0000079 0.0003132 0.0001192-0.0000078-0.0000394
           dy -0.0000186-0.0000329 0.0000456-0.0000014 0.0000518-0.0000265
           dz  0.0002654 0.0000676-0.0000835-0.0000470-0.0000160 0.0000869
  48 h     dx -0.0000226-0.0000100 0.0000054-0.0000174 0.0000143-0.0000216
           dy  0.0000209 0.0000023-0.0000352-0.0001486-0.0000129 0.0000457
           dz -0.0000415-0.0000247-0.0000125-0.0000150 0.0000063-0.0000109
  49 h     dx -0.0000031-0.0000172-0.0000428-0.0000172 0.0000010 0.0000156
           dy -0.0000343-0.0000075 0.0000084 0.0000470 0.0000166-0.0001166
           dz -0.0000034-0.0000093-0.0000269-0.0000159 0.0000189-0.0000448
  50 c     dx  0.0000096-0.0000070-0.0001364-0.0000471 0.0000053-0.0000048
           dy -0.0000083 0.0000066-0.0000362 0.0000142-0.0000156 0.0000178
           dz -0.0001433-0.0000353-0.0000230 0.0000057 0.0000065-0.0000345
  51 h     dx  0.0001543 0.0000675 0.0000019 0.0000278-0.0000388 0.0000510
           dy -0.0000134 0.0000071-0.0000104 0.0000045 0.0000001 0.0000023
           dz -0.0001722-0.0000645-0.0000057 0.0000274 0.0000222-0.0000611
  52 h     dx -0.0000163-0.0000390-0.0001728-0.0000720 0.0000118 0.0000080
           dy -0.0000223-0.0000147-0.0001023-0.0000252 0.0000120-0.0000081
           dz  0.0000219 0.0000393 0.0000761 0.0000420-0.0000356 0.0000355
  53 c     dx -0.0000516 0.0000178-0.0000031 0.0000324-0.0000326 0.0000091
           dy  0.0000057-0.0000191 0.0000073-0.0000267 0.0000288-0.0000230
           dz -0.0000042 0.0000094-0.0000367 0.0000119-0.0000207 0.0000179
  54 h     dx  0.0000083 0.0000034 0.0000147-0.0000006 0.0000017 0.0000014
           dy  0.0000586 0.0000276 0.0000097-0.0000063-0.0000091 0.0000226
           dz  0.0000136-0.0000104 0.0000061-0.0000050 0.0000112-0.0000068
  55 h     dx  0.0000036-0.0000180-0.0000026-0.0000142 0.0000121-0.0000046
           dy  0.0000059 0.0000150 0.0000583 0.0000198-0.0000035-0.0000003
           dz  0.0000160 0.0000052 0.0000271 0.0000036 0.0000037-0.0000002
  56 c     dx  0.0000211-0.0000024 0.0000028-0.0000176 0.0000105-0.0000104
           dy  0.0000031-0.0000078-0.0000047-0.0000014 0.0000036 0.0000004
           dz -0.0000013-0.0000136 0.0000148-0.0000080 0.0000150-0.0000134
  57 h     dx -0.0000192 0.0000244-0.0000308 0.0000166-0.0000266 0.0000121
           dy -0.0000096 0.0000011 0.0000007-0.0000018-0.0000034 0.0000060
           dz  0.0000030-0.0000252 0.0000212-0.0000106 0.0000258-0.0000217
  58 h     dx  0.0000307-0.0000274 0.0000099-0.0000298 0.0000294-0.0000119
           dy  0.0000115-0.0000101 0.0000022-0.0000069 0.0000109-0.0000063
           dz -0.0000255 0.0000193-0.0000262 0.0000136-0.0000230 0.0000106
  59 h     dx  0.0000041-0.0000091 0.0000049-0.0000062 0.0000057-0.0000014
           dy -0.0000083 0.0000109-0.0000037 0.0000086-0.0000092 0.0000034
           dz -0.0000034 0.0000031-0.0000009 0.0000045-0.0000042 0.0000025
  60 h     dx  0.0000050 0.0000034 0.0000053-0.0000039 0.0000036-0.0000033
           dy  0.0000149-0.0000041 0.0000148-0.0000109 0.0000136-0.0000075
           dz  0.0000104 0.0000014 0.0000114-0.0000081 0.0000092-0.0000051
  61 h     dx -0.0000027 0.0000017-0.0000006 0.0000014-0.0000031 0.0000020
           dy -0.0000046 0.0000123-0.0000069 0.0000033-0.0000109 0.0000087
           dz  0.0000032-0.0000053 0.0000005 0.0000007 0.0000031-0.0000027
  62 h     dx -0.0000083 0.0000318-0.0000260-0.0000025-0.0000587 0.0000411
           dy  0.0000021-0.0000032-0.0000099-0.0000336 0.0000022 0.0000180
           dz  0.0000087-0.0000277 0.0000056-0.0000156 0.0000465-0.0000229
  63 h     dx  0.0000145 0.0000022 0.0000046-0.0000114-0.0000089 0.0000239
           dy -0.0000089 0.0000191-0.0000073 0.0000125-0.0000409 0.0000092
           dz  0.0000024 0.0000054 0.0000146 0.0000299-0.0000136-0.0000045
  64 h     dx  0.0000151-0.0000292 0.0000063-0.0000435 0.0000442 0.0000026
           dy  0.0000009-0.0000188 0.0000015 0.0000032 0.0000364-0.0000326
           dz -0.0000250 0.0000193-0.0000110 0.0000499-0.0000337-0.0000168

   ATOM              3 c                           4 c 
                  dx        dy        dz        dx        dy        dz
   3 c     dx  0.5437815
           dy -0.0128124 0.4915181
           dz -0.0459573-0.0376574 0.5143751
   4 c     dx -0.1191463-0.0051297-0.0508044 0.5428752
           dy -0.0052072-0.0775719-0.0062756-0.0124210 0.4907977
           dz -0.0508209-0.0061802-0.1405078-0.0457014-0.0375489 0.5135781
   5 c     dx -0.0001685-0.0000309 0.0002631 0.0001290 0.0000469-0.0000261
           dy -0.0000082-0.0000326 0.0000725 0.0000361 0.0000263 0.0000230
           dz  0.0002981 0.0000450-0.0000777-0.0000395 0.0000159 0.0001340
   6 h     dx -0.0002203-0.0000171 0.0003332 0.0000983 0.0000301-0.0000223
           dy -0.0000375-0.0000066 0.0001586 0.0000527 0.0000355 0.0000450
           dz  0.0001054-0.0001441-0.0001410-0.0000468 0.0000579 0.0000586
   7 h     dx -0.0002880-0.0001336 0.0001240 0.0000784 0.0000746-0.0000641
           dy  0.0000805-0.0001037 0.0000167 0.0000516 0.0000330 0.0000283
           dz  0.0004159 0.0001129-0.0001673-0.0000529 0.0000068 0.0001058
   8 c     dx  0.0001174-0.0000009-0.0000506-0.0001648-0.0000097 0.0002879
           dy -0.0000053 0.0000557-0.0000204-0.0000171-0.0000360 0.0000458
           dz -0.0000414-0.0000283 0.0000880 0.0002716 0.0000771-0.0000760
   9 h     dx -0.0000184-0.0000006 0.0000174 0.0000014-0.0000147-0.0000423
           dy  0.0000505 0.0000211-0.0001180-0.0000359-0.0000104 0.0000047
           dz -0.0000142 0.0000192-0.0000426-0.0000010-0.0000079-0.0000275
  10 h     dx -0.0000164 0.0000156-0.0000235-0.0000202-0.0000099 0.0000017
           dy -0.0001462-0.0000153 0.0000403 0.0000211 0.0000049-0.0000337
           dz -0.0000127 0.0000078-0.0000117-0.0000363-0.0000241-0.0000156
  11 c     dx -0.0000455-0.0000028 0.0000005 0.0000116-0.0000022-0.0001363
           dy  0.0000127-0.0000149 0.0000195-0.0000110 0.0000019-0.0000377
           dz  0.0000025 0.0000044-0.0000331-0.0001378-0.0000346-0.0000323
  12 h     dx -0.0000715 0.0000094 0.0000137 0.0000103-0.0000341-0.0001725
           dy -0.0000197 0.0000118-0.0000069-0.0000093-0.0000054-0.0001013
           dz  0.0000412-0.0000354 0.0000336 0.0000041 0.0000326 0.0000991
  13 h     dx  0.0000290-0.0000427 0.0000504 0.0001277 0.0000625 0.0000228
           dy  0.0000022-0.0000005 0.0000013-0.0000330 0.0000048-0.0000103
           dz  0.0000202 0.0000268-0.0000585-0.0001650-0.0000660-0.0000212
  14 c     dx  0.0000207-0.0000202 0.0000033-0.0000311 0.0000125 0.0000098
           dy -0.0000173 0.0000240-0.0000161 0.0000034-0.0000125 0.0000009
           dz  0.0000048-0.0000194 0.0000118 0.0000018 0.0000145-0.0000264
  15 h     dx -0.0000145 0.0000114-0.0000036 0.0000048-0.0000168-0.0000030
           dy  0.0000186-0.0000007-0.0000035 0.0000021 0.0000111 0.0000588
           dz  0.0000027 0.0000037-0.0000010 0.0000136 0.0000039 0.0000253
  16 h     dx  0.0000004 0.0000028-0.0000006 0.0000092 0.0000027 0.0000148
           dy -0.0000046-0.0000089 0.0000202 0.0000554 0.0000264 0.0000151
           dz -0.0000055 0.0000129-0.0000083 0.0000145-0.0000122 0.0000064
  17 h     dx  0.0000163-0.0000279 0.0000113-0.0000245 0.0000241-0.0000315
           dy -0.0000038 0.0000023 0.0000030-0.0000078-0.0000076 0.0000029
           dz -0.0000123 0.0000266-0.0000205 0.0000062-0.0000264 0.0000211
  18 h     dx -0.0000154 0.0000159-0.0000094 0.0000182-0.0000097 0.0000053
           dy  0.0000030-0.0000082 0.0000034-0.0000025 0.0000218 0.0000000
           dz -0.0000135 0.0000172-0.0000125 0.0000076-0.0000091 0.0000178
  19 h     dx -0.0000265 0.0000248-0.0000101 0.0000275-0.0000226 0.0000072
           dy -0.0000059 0.0000141-0.0000071 0.0000160-0.0000142-0.0000019
           dz  0.0000111-0.0000226 0.0000101-0.0000259 0.0000170-0.0000248
  20 c     dx  0.0007494 0.0002056-0.0007123-0.0002608-0.0000672 0.0001838
           dy  0.0001916-0.0001374-0.0001067-0.0000162 0.0001392 0.0000990
           dz -0.0007345-0.0001096 0.0004399 0.0001880 0.0000957-0.0001588
  21 h     dx  0.0000429 0.0000357-0.0000284-0.0000192-0.0000206 0.0000039
           dy -0.0001031 0.0000312 0.0000897 0.0000178-0.0000278-0.0000456
           dz  0.0001085 0.0000042-0.0000176-0.0000200-0.0000132 0.0000133
  22 h     dx -0.0000361-0.0000401 0.0000995 0.0000232 0.0000064-0.0000103
           dy  0.0000765 0.0000554-0.0000401-0.0000324-0.0000385-0.0000031
           dz -0.0000267 0.0000269 0.0000462 0.0000083-0.0000217-0.0000232
  23 c     dx -0.0002649-0.0000148 0.0001751 0.0000787 0.0000036-0.0000619
           dy -0.0000743 0.0001364 0.0001001 0.0000097-0.0001294-0.0000627
           dz  0.0001894 0.0001043-0.0001554-0.0000635-0.0000621 0.0000418
  24 h     dx -0.0003531 0.0000972 0.0003663 0.0000895-0.0001161-0.0001622
           dy -0.0001613 0.0000116 0.0000880 0.0000267-0.0000281-0.0000418
           dz  0.0001248 0.0000295-0.0002441-0.0000386 0.0000381 0.0000877
  25 h     dx -0.0002900-0.0000488 0.0000320 0.0000719 0.0000963 0.0000087
           dy  0.0000514 0.0000154-0.0000747-0.0000028-0.0000021 0.0000173
           dz  0.0001948 0.0002471-0.0002059-0.0000897-0.0001628-0.0000155
  26 c     dx  0.0001133-0.0000009-0.0000521-0.0000354 0.0000066 0.0000089
           dy -0.0000030 0.0000610-0.0000225 0.0000159-0.0000375 0.0000078
           dz -0.0000599-0.0000096 0.0000847 0.0000165 0.0000033-0.0000226
  27 h     dx  0.0000635-0.0000103-0.0000576-0.0000177 0.0000154 0.0000214
           dy -0.0000009-0.0000282 0.0000150-0.0000053 0.0000164-0.0000061
           dz  0.0001069-0.0000457-0.0000787-0.0000122 0.0000370 0.0000443
  28 h     dx -0.0000573-0.0000677 0.0000479 0.0000287 0.0000409 0.0000140
           dy  0.0000187-0.0000333 0.0000029-0.0000074 0.0000206-0.0000001
           dz -0.0000575-0.0000518 0.0000421 0.0000197 0.0000366-0.0000047
  29 c     dx -0.0000328 0.0000105 0.0000196 0.0000076-0.0000063-0.0000140
           dy -0.0000060-0.0000357-0.0000061-0.0000053 0.0000142-0.0000040
           dz  0.0000241 0.0000010-0.0000127-0.0000134 0.0000031 0.0000020
  30 h     dx -0.0000134-0.0000629 0.0000442-0.0000093 0.0000299-0.0000219
           dy -0.0000415 0.0000024 0.0000220 0.0000021-0.0000040-0.0000118
           dz -0.0000032 0.0000458-0.0000244 0.0000053-0.0000297 0.0000149
  31 h     dx -0.0000455 0.0000431 0.0000071 0.0000219-0.0000301 0.0000077
           dy  0.0000001 0.0000380-0.0000299-0.0000058-0.0000220 0.0000054
           dz  0.0000547-0.0000466-0.0000163-0.0000203 0.0000251-0.0000140
  32 h     dx -0.0000159 0.0000122 0.0000048 0.0000100-0.0000102 0.0000082
           dy  0.0000044-0.0000008 0.0000013-0.0000021 0.0000031-0.0000026
           dz -0.0000072 0.0000042 0.0000064 0.0000048-0.0000013 0.0000005
  33 h     dx  0.0000196-0.0000233 0.0000078-0.0000044 0.0000148-0.0000002
           dy  0.0000218-0.0000313 0.0000110-0.0000006 0.0000162 0.0000051
           dz  0.0000190-0.0000340 0.0000164-0.0000042 0.0000197 0.0000014
  34 h     dx  0.0000073 0.0000048-0.0000065-0.0000007-0.0000019 0.0000030
           dy -0.0000022-0.0000026 0.0000063-0.0000040 0.0000034-0.0000026
           dz  0.0000101 0.0000147-0.0000131 0.0000066-0.0000084 0.0000091
  35 c     dx -0.0013877-0.0225806-0.0060438-0.0776373 0.0006012 0.0006125
           dy -0.0042227-0.0053452-0.0061371 0.0005875-0.1758683-0.0246506
           dz -0.0012920-0.0281467-0.0100767 0.0006136-0.0246505-0.0836530
  36 h     dx  0.0056857 0.0116229-0.0180290-0.0723788-0.0420005 0.0593273
           dy  0.0014487 0.0018022-0.0035614-0.0416637-0.1242301 0.1058938
           dz  0.0077976 0.0145053-0.0229358 0.0589831 0.1060463-0.1909946
  37 h     dx -0.0214087 0.0057274 0.0046777-0.2545886 0.0669077 0.0586713
           dy -0.0041821 0.0005749 0.0011368 0.0665872-0.0688276-0.0171404
           dz -0.0263836 0.0071812 0.0053900 0.0590282-0.0173191-0.0641294
  38 c     dx -0.0005493 0.0011944 0.0005115-0.0012443-0.0041578-0.0011801
           dy  0.0011246-0.0070401-0.0002789-0.0223463-0.0055568-0.0279398
           dz  0.0004902-0.0002093-0.0001903-0.0059071-0.0061394-0.0098428
  39 h     dx  0.0006711-0.0001886-0.0001724 0.0005334-0.0002872-0.0003836
           dy  0.0014539 0.0012854 0.0010806 0.0306762-0.0123862-0.0100808
           dz  0.0013066 0.0003356 0.0004624 0.0089690-0.0032769-0.0035150
  40 h     dx  0.0000631-0.0001549 0.0007958-0.0008826-0.0003605 0.0006968
           dy  0.0005526 0.0011245 0.0019346-0.0112338-0.0213623 0.0248439
           dz -0.0000749-0.0001367 0.0012027-0.0034310-0.0060822 0.0069078
  41 c     dx  0.0007399-0.0015389-0.0002835-0.0033939 0.0006195-0.0032478
           dy  0.0002456 0.0004660 0.0002455 0.0002302 0.0001770 0.0004675
           dz  0.0001734-0.0018856 0.0003598-0.0033365 0.0009255-0.0043347
  42 h     dx  0.0004010-0.0002372-0.0002975 0.0002952 0.0011440 0.0011928
           dy -0.0001099 0.0000326-0.0000470-0.0008090 0.0007655 0.0005940
           dz -0.0001034 0.0002124-0.0000635-0.0000604 0.0012200 0.0013137
  43 h     dx -0.0000421 0.0002491-0.0000783 0.0006805 0.0009339 0.0004461
           dy  0.0000190 0.0001866-0.0001868 0.0004720 0.0009855-0.0005667
           dz -0.0003004-0.0003146 0.0002247 0.0010860 0.0017232 0.0007236
  44 c     dx -0.0774963 0.0001869 0.0006020-0.0014152-0.0225708-0.0061199
           dy  0.0003005-0.1757434-0.0247888-0.0041936-0.0052567-0.0060969
           dz  0.0006287-0.0249212-0.0835585-0.0013807-0.0281418-0.0100835
  45 h     dx -0.0719913-0.0420504 0.0592651 0.0056202 0.0116153-0.0180532
           dy -0.0421449-0.1245145 0.1064653 0.0014767 0.0018376-0.0035817
           dz  0.0593002 0.1063555-0.1913466 0.0077441 0.0144645-0.0228909
  46 h     dx -0.2553459 0.0676511 0.0589089-0.0213031 0.0057059 0.0045799
           dy  0.0678025-0.0691548-0.0176345-0.0042461 0.0006133 0.0011634
           dz  0.0588032-0.0175691-0.0640810-0.0263732 0.0072195 0.0053213
  47 c     dx -0.0015123-0.0042234-0.0014631-0.0005191 0.0011021 0.0004919
           dy -0.0225859-0.0052232-0.0281186 0.0011315-0.0071778-0.0003089
           dz -0.0061718-0.0061118-0.0101846 0.0005029-0.0003289-0.0001948
  48 h     dx -0.0009029-0.0004456 0.0007491 0.0000373-0.0001161 0.0008294
           dy -0.0113865-0.0213929 0.0249011 0.0005436 0.0011603 0.0019542
           dz -0.0034663-0.0060628 0.0068749-0.0000630-0.0001507 0.0011901
  49 h     dx  0.0005184-0.0002869-0.0003958 0.0006460-0.0002242-0.0001625
           dy  0.0307503-0.0124261-0.0101618 0.0014658 0.0013097 0.0010826
           dz  0.0089881-0.0033152-0.0035389 0.0013255 0.0003558 0.0004450
  50 c     dx -0.0035413 0.0007537-0.0032245 0.0007863-0.0015808-0.0002820
           dy  0.0007724-0.0000800 0.0010912 0.0001897 0.0007655 0.0002488
           dz -0.0032212 0.0010761-0.0042890 0.0001731-0.0018803 0.0004057
  51 h     dx  0.0007146 0.0009204 0.0004353-0.0000516 0.0002410-0.0000889
           dy  0.0004891 0.0009802-0.0005755 0.0000075 0.0001775-0.0001793
           dz  0.0010584 0.0017004 0.0006929-0.0002750-0.0002970 0.0002113
  52 h     dx  0.0002876 0.0011139 0.0011183 0.0003736-0.0002186-0.0002672
           dy -0.0008165 0.0007664 0.0005703-0.0001062 0.0000266-0.0000447
           dz -0.0000910 0.0011867 0.0013237-0.0001180 0.0002061-0.0000647
  53 c     dx  0.0007812 0.0001874 0.0001891-0.0000711 0.0002082-0.0000199
           dy -0.0015528 0.0007229-0.0018497 0.0001925-0.0009400-0.0000064
           dz -0.0002568 0.0002379 0.0004179-0.0000222 0.0000155-0.0000346
  54 h     dx -0.0000068 0.0000351-0.0002689-0.0000087-0.0000475 0.0000124
           dy  0.0001904 0.0000224-0.0003007 0.0000334 0.0000374-0.0000783
           dz  0.0000265-0.0002201 0.0003418 0.0000137 0.0001207-0.0000368
  55 h     dx  0.0004779-0.0001134 0.0000258-0.0000462 0.0001018 0.0000252
           dy -0.0001657-0.0001040 0.0001445-0.0001033 0.0000407 0.0000316
           dz -0.0002459-0.0000655-0.0000148-0.0000070-0.0000162-0.0000050
  56 c     dx -0.0004152 0.0001501-0.0004416 0.0000686-0.0002438 0.0000065
           dy  0.0000826-0.0000588 0.0000884-0.0000216 0.0000756-0.0000056
           dz -0.0004596 0.0001668-0.0005216 0.0000647-0.0002702 0.0000180
  57 h     dx  0.0000085-0.0000630 0.0001276-0.0000003 0.0000367 0.0000055
           dy  0.0000376-0.0000203 0.0000595-0.0000081 0.0000269 0.0000042
           dz -0.0000600-0.0000272 0.0000196 0.0000164-0.0000156 0.0000103
  58 h     dx -0.0000025 0.0000020-0.0000689 0.0000110-0.0000291 0.0000132
           dy  0.0000264-0.0000057 0.0000217 0.0000050 0.0000146-0.0000021
           dz  0.0001491-0.0000394 0.0000162-0.0000036 0.0000363 0.0000121
  59 h     dx  0.0000283-0.0000183 0.0000359-0.0000163 0.0000249-0.0000030
           dy  0.0000137 0.0000105 0.0000141 0.0000057-0.0000001-0.0000004
           dz -0.0000019-0.0000038 0.0000099 0.0000030 0.0000036-0.0000043
  60 h     dx -0.0000456 0.0000465-0.0000413 0.0000128-0.0000358 0.0000138
           dy -0.0002291 0.0001167-0.0002443 0.0000450-0.0001481 0.0000168
           dz -0.0001125 0.0000857-0.0001137 0.0000349-0.0000793 0.0000142
  61 h     dx  0.0000039-0.0000006-0.0000094-0.0000026-0.0000012 0.0000021
           dy  0.0000029 0.0000134 0.0000089-0.0000000-0.0000077 0.0000080
           dz  0.0000372-0.0000145 0.0000328-0.0000072 0.0000264-0.0000091
  62 h     dx -0.0000061-0.0000374 0.0000120 0.0000097 0.0000141-0.0002394
           dy  0.0000505 0.0000580-0.0000829 0.0001852 0.0000154-0.0002426
           dz -0.0000052 0.0001325-0.0000439 0.0000513-0.0002482 0.0002654
  63 h     dx  0.0000574-0.0000934 0.0000416 0.0002665 0.0003676-0.0002978
           dy  0.0002042-0.0008890 0.0000150-0.0014839 0.0005966-0.0017821
           dz  0.0001183-0.0003442 0.0000561-0.0007808 0.0004420-0.0002283
  64 h     dx -0.0000468 0.0001103 0.0000034 0.0003955-0.0001570 0.0000201
           dy -0.0001183 0.0000563 0.0000484-0.0001260-0.0001071 0.0001463
           dz -0.0000182 0.0000000 0.0000045-0.0002230-0.0000918 0.0000102

   ATOM              5 c                           6 h 
                  dx        dy        dz        dx        dy        dz
   5 c     dx  0.5408855
           dy -0.0143304 0.4896755
           dz -0.0462811-0.0366213 0.5167067
   6 h     dx  0.0007776-0.0003796-0.0004741 0.2792965
           dy  0.0306465-0.0128167-0.0104856-0.0767511 0.0789383
           dz  0.0082370-0.0031211-0.0033791-0.0634924 0.0241325 0.0706513
   7 h     dx -0.0009527-0.0005058 0.0009271-0.0095540-0.0167021 0.0239574
           dy -0.0109307-0.0209793 0.0256602 0.0026463 0.0053160-0.0079576
           dz -0.0030628-0.0054506 0.0065332 0.0030868 0.0046981-0.0076034
   8 c     dx -0.1211365-0.0060842-0.0509366 0.0006935 0.0015091 0.0012761
           dy -0.0060603-0.0779608-0.0070464-0.0001948 0.0013143 0.0003170
           dz -0.0509258-0.0070864-0.1380760-0.0001736 0.0010287 0.0004131
   9 h     dx -0.2517459 0.0684387 0.0609823 0.0012366-0.0004242-0.0007358
           dy  0.0681076-0.0700072-0.0186089-0.0004437-0.0063851-0.0020152
           dz  0.0613263-0.0187977-0.0658190-0.0007485-0.0019937 0.0003846
  10 h     dx -0.0704407-0.0389591 0.0580455 0.0004917-0.0000383-0.0007192
           dy -0.0386329-0.1197034 0.1049807 0.0005922 0.0014231 0.0000874
           dz  0.0577005 0.1051757-0.1976227-0.0002346 0.0007361 0.0005041
  11 c     dx -0.0017029-0.0230617-0.0058936 0.0004583-0.0001590-0.0002294
           dy -0.0043588-0.0056174-0.0060136-0.0001264-0.0001078-0.0000504
           dz -0.0016153-0.0274658-0.0093119 0.0000059 0.0001440-0.0000083
  12 h     dx -0.0217096 0.0060108 0.0050558 0.0004894-0.0010460-0.0005756
           dy -0.0046565 0.0007641 0.0013400 0.0002415 0.0002316-0.0001350
           dz -0.0256912 0.0072488 0.0055866 0.0005501-0.0002643 0.0000216
  13 h     dx  0.0054354 0.0115470-0.0188021-0.0000368-0.0001519 0.0000595
           dy  0.0015478 0.0020213-0.0040557 0.0000296-0.0000103-0.0000261
           dz  0.0071875 0.0137498-0.0228219-0.0000226-0.0000608-0.0000354
  14 c     dx -0.0002936 0.0006279 0.0004448-0.0000310-0.0001186-0.0000075
           dy  0.0010138-0.0071147-0.0003278 0.0000992 0.0000584-0.0000150
           dz  0.0005432-0.0007883-0.0001209 0.0000223 0.0000431 0.0000011
  15 h     dx  0.0006646-0.0002374-0.0001683-0.0000956-0.0001770-0.0000944
           dy  0.0015268 0.0013345 0.0010585-0.0001603 0.0002584 0.0001576
           dz  0.0012935 0.0003291 0.0003912-0.0000896 0.0001655 0.0000422
  16 h     dx  0.0000547-0.0000974 0.0008437-0.0000234 0.0000353 0.0000162
           dy  0.0006031 0.0012148 0.0019548 0.0000088-0.0000238 0.0000334
           dz -0.0000470-0.0001591 0.0011329 0.0000057 0.0000133-0.0000130
  17 h     dx -0.0000601 0.0002147-0.0000778-0.0000064-0.0000002 0.0000094
           dy -0.0000602 0.0001405-0.0001827-0.0000023 0.0000010-0.0000000
           dz -0.0002558-0.0002479 0.0002152 0.0000111-0.0000013-0.0000108
  18 h     dx  0.0006508-0.0014808-0.0002726 0.0000266 0.0000146-0.0000102
           dy  0.0004275-0.0003606 0.0002726 0.0000144-0.0000028 0.0000006
           dz  0.0001632-0.0019137 0.0003439 0.0000369 0.0000116-0.0000062
  19 h     dx  0.0003397-0.0001815-0.0002377 0.0000176-0.0000515-0.0000375
           dy -0.0001071 0.0000356-0.0001050 0.0000083-0.0000120-0.0000126
           dz -0.0001075 0.0001990-0.0000799-0.0000052-0.0000494-0.0000071
  20 c     dx -0.0036586 0.0006758-0.0032445 0.0003075-0.0008203-0.0000523
           dy  0.0006608-0.0000152 0.0009241 0.0011799 0.0008077 0.0011914
           dz -0.0032609 0.0009375-0.0042396 0.0011131 0.0005905 0.0012655
  21 h     dx  0.0007116 0.0009537 0.0004203 0.0011191 0.0004721 0.0007328
           dy  0.0005079 0.0010122-0.0005634 0.0002489-0.0000164 0.0003840
           dz  0.0010760 0.0016694 0.0006563-0.0001945 0.0000010 0.0013237
  22 h     dx  0.0003135 0.0011729 0.0011774-0.0015217-0.0007268-0.0041272
           dy -0.0007847 0.0008115 0.0006349-0.0007070 0.0002628-0.0010510
           dz -0.0000189 0.0011856 0.0012569-0.0041218-0.0010556-0.0035144
  23 c     dx  0.0008002 0.0002033 0.0001734 0.0003776-0.0001133-0.0001189
           dy -0.0016177 0.0007136-0.0018578-0.0002296 0.0000287 0.0002035
           dz -0.0002397 0.0002330 0.0004641-0.0002704-0.0000408-0.0000666
  24 h     dx -0.0000139 0.0000344-0.0002461-0.0000201-0.0000506 0.0000854
           dy  0.0001768 0.0000077-0.0002822-0.0000364-0.0000036-0.0001341
           dz  0.0000301-0.0002195 0.0003491-0.0000384 0.0000259-0.0000534
  25 h     dx  0.0004616-0.0001221 0.0000113 0.0004907 0.0002498 0.0005586
           dy -0.0001540-0.0001077 0.0001449-0.0010445 0.0002332-0.0002639
           dz -0.0002339-0.0000516-0.0000105-0.0005726-0.0001376 0.0000254
  26 c     dx -0.0004408 0.0001432-0.0004635 0.0000018 0.0000259 0.0001452
           dy  0.0001540-0.0000995 0.0001581 0.0000012-0.0000080-0.0000388
           dz -0.0004643 0.0001374-0.0005136-0.0000649 0.0000246 0.0000190
  27 h     dx  0.0000038-0.0000539 0.0001243-0.0000313 0.0000159-0.0000135
           dy  0.0000281-0.0000194 0.0000652 0.0000197-0.0000121 0.0000223
           dz -0.0000502-0.0000313 0.0000077 0.0000173 0.0000305-0.0000172
  28 h     dx -0.0000114-0.0000100-0.0000606 0.0003117 0.0000705 0.0002056
           dy  0.0000361-0.0000087 0.0000187 0.0000730-0.0000872-0.0000311
           dz  0.0001413-0.0000338 0.0000100 0.0001937-0.0000318-0.0000215
  29 c     dx  0.0000582-0.0000167 0.0000480 0.0000092-0.0000005-0.0000073
           dy -0.0002423 0.0001095-0.0002592-0.0000247 0.0000095 0.0000374
           dz -0.0000083-0.0000076 0.0000018 0.0000055 0.0000048 0.0000141
  30 h     dx -0.0000077 0.0000094-0.0000164-0.0000119-0.0000039 0.0000071
           dy -0.0000022 0.0000162 0.0000100-0.0000062-0.0000002 0.0000027
           dz  0.0000387-0.0000071 0.0000281 0.0000114 0.0000025-0.0000045
  31 h     dx  0.0000259-0.0000127 0.0000365 0.0000215 0.0000086-0.0000051
           dy  0.0000208 0.0000138 0.0000093-0.0000513-0.0000118-0.0000473
           dz -0.0000154 0.0000077 0.0000017-0.0000388-0.0000110-0.0000044
  32 h     dx -0.0000187 0.0000101-0.0000051 0.0000115 0.0000020 0.0000011
           dy  0.0000113-0.0000090 0.0000108 0.0000056-0.0000003 0.0000037
           dz  0.0000073-0.0000047 0.0000078 0.0000029 0.0000045-0.0000007
  33 h     dx -0.0000687 0.0000340-0.0000638-0.0000136 0.0000015 0.0000079
           dy -0.0000506 0.0000399-0.0000475-0.0000159 0.0000016 0.0000057
           dz -0.0000840 0.0000490-0.0000913-0.0000144 0.0000033 0.0000119
  34 h     dx  0.0000056-0.0000030 0.0000079-0.0000024-0.0000002-0.0000028
           dy  0.0000137-0.0000122 0.0000153 0.0000054-0.0000020 0.0000005
           dz -0.0000018 0.0000092-0.0000131 0.0000007 0.0000030-0.0000034
  35 c     dx -0.0002599-0.0000837 0.0001700-0.0002856 0.0000075 0.0002566
           dy -0.0000999-0.0000833-0.0000400-0.0000760 0.0000257 0.0002272
           dz  0.0001461-0.0000462-0.0002354 0.0000666-0.0000951-0.0001964
  36 h     dx -0.0000222-0.0000099 0.0000043-0.0000259-0.0000224 0.0000041
           dy  0.0000187 0.0000017-0.0000341 0.0000575-0.0000134-0.0000848
           dz -0.0000405-0.0000237-0.0000142-0.0000808-0.0000364 0.0000293
  37 h     dx -0.0000021-0.0000161-0.0000421-0.0000274-0.0000236 0.0000284
           dy -0.0000346-0.0000083 0.0000086-0.0000002 0.0000030-0.0000259
           dz -0.0000026-0.0000091-0.0000264 0.0000013-0.0000138-0.0000100
  38 c     dx  0.0001021 0.0000225-0.0000789 0.0000806 0.0000024-0.0000978
           dy  0.0000476 0.0000931 0.0000344 0.0001047 0.0000026-0.0001648
           dz -0.0000579 0.0000243 0.0000982 0.0000096 0.0000098-0.0000099
  39 h     dx  0.0000975 0.0000219-0.0000351-0.0000053-0.0000529 0.0001017
           dy  0.0000525 0.0000292 0.0000426-0.0000521 0.0000136-0.0000008
           dz -0.0000457 0.0000603 0.0000707 0.0001010-0.0000059-0.0000839
  40 h     dx  0.0000747 0.0000657-0.0000725 0.0000849 0.0000853-0.0004763
           dy  0.0000535 0.0000352 0.0000234 0.0001838-0.0000064 0.0000073
           dz -0.0000439 0.0000164 0.0001068-0.0002808 0.0001048 0.0000364
  41 c     dx -0.0002153-0.0000300 0.0001621-0.0000346 0.0000112 0.0000481
           dy -0.0000367 0.0001277 0.0000806 0.0000225 0.0000282-0.0000270
           dz  0.0001520 0.0001027-0.0001351 0.0000089-0.0000257-0.0000138
  42 h     dx  0.0000180-0.0000023-0.0000132-0.0000171-0.0000065 0.0000395
           dy -0.0000359-0.0000334-0.0000011-0.0000098 0.0000051 0.0000093
           dz  0.0000037-0.0000241-0.0000261-0.0000099-0.0000101 0.0000207
  43 h     dx -0.0000213-0.0000197 0.0000047-0.0000312-0.0000030 0.0000478
           dy  0.0000084-0.0000250-0.0000431 0.0000045-0.0000043-0.0000036
           dz -0.0000172-0.0000162 0.0000083-0.0000641 0.0000037 0.0000883
  44 c     dx  0.0000106-0.0000088-0.0001350-0.0000037-0.0000129 0.0000138
           dy -0.0000053 0.0000051-0.0000343-0.0000340-0.0000087 0.0000331
           dz -0.0001370-0.0000355-0.0000258-0.0001706-0.0001030 0.0000991
  45 h     dx  0.0001484 0.0000648 0.0000105 0.0002780 0.0002191-0.0001482
           dy -0.0000162 0.0000048-0.0000075 0.0000629-0.0003136 0.0000564
           dz -0.0001660-0.0000626-0.0000140-0.0002665-0.0000864 0.0002074
  46 h     dx -0.0000090-0.0000372-0.0001701-0.0000525-0.0000980 0.0000854
           dy -0.0000181-0.0000125-0.0001039-0.0001036 0.0000523 0.0000284
           dz  0.0000144 0.0000355 0.0000866 0.0000849 0.0000292-0.0000643
  47 c     dx -0.0000496 0.0000146 0.0000007-0.0000724-0.0000191 0.0000378
           dy  0.0000043-0.0000158 0.0000069 0.0000081 0.0000121-0.0000343
           dz -0.0000022 0.0000150-0.0000340 0.0000156-0.0000086 0.0000352
  48 h     dx  0.0000074 0.0000032 0.0000143 0.0000129 0.0000052-0.0000055
           dy  0.0000562 0.0000266 0.0000120 0.0000982 0.0000486-0.0000570
           dz  0.0000125-0.0000097 0.0000057-0.0000018 0.0000055-0.0000071
  49 h     dx  0.0000031-0.0000168-0.0000035-0.0000064-0.0000094 0.0000062
           dy  0.0000043 0.0000139 0.0000571 0.0000223 0.0000269-0.0000271
           dz  0.0000155 0.0000053 0.0000260 0.0000229 0.0000123-0.0000119
  50 c     dx  0.0000204-0.0000024 0.0000022 0.0000247 0.0000170-0.0000230
           dy -0.0000032-0.0000083-0.0000093-0.0000252-0.0000082 0.0000174
           dz -0.0000009-0.0000101 0.0000173 0.0000046-0.0000033-0.0000229
  51 h     dx -0.0000180 0.0000216-0.0000280-0.0000034 0.0000057 0.0000031
           dy -0.0000038 0.0000008-0.0000034-0.0000064-0.0000035 0.0000064
           dz -0.0000015-0.0000247 0.0000204-0.0000243-0.0000075-0.0000106
  52 h     dx  0.0000256-0.0000247 0.0000061 0.0000222 0.0000010-0.0000135
           dy  0.0000126-0.0000093 0.0000013 0.0000015-0.0000018 0.0000014
           dz -0.0000220 0.0000169-0.0000272-0.0000144 0.0000015-0.0000000
  53 c     dx -0.0000166 0.0000065-0.0000123-0.0000312-0.0000018 0.0000093
           dy  0.0000142-0.0000031 0.0000118 0.0000225 0.0000095-0.0000185
           dz -0.0000118-0.0000016-0.0000120-0.0000101-0.0000085 0.0000104
  54 h     dx -0.0000016 0.0000025 0.0000009 0.0000008 0.0000009 0.0000017
           dy -0.0000035 0.0000121-0.0000066 0.0000111 0.0000042 0.0000015
           dz  0.0000063-0.0000052 0.0000045 0.0000007 0.0000003-0.0000003
  55 h     dx  0.0000072-0.0000090 0.0000075 0.0000045-0.0000008-0.0000010
           dy -0.0000082 0.0000098-0.0000019-0.0000039 0.0000029 0.0000011
           dz -0.0000002 0.0000039 0.0000009 0.0000013 0.0000001 0.0000021
  56 c     dx  0.0000110 0.0000040 0.0000081 0.0000109 0.0000122-0.0000105
           dy  0.0000040-0.0000061-0.0000000-0.0000057-0.0000022 0.0000044
           dz  0.0000037-0.0000037 0.0000102 0.0000134 0.0000005-0.0000089
  57 h     dx -0.0000099 0.0000102-0.0000139-0.0000063 0.0000002 0.0000009
           dy -0.0000048-0.0000007 0.0000031-0.0000012-0.0000010 0.0000022
           dz  0.0000129-0.0000093 0.0000122 0.0000054 0.0000018-0.0000055
  58 h     dx  0.0000163-0.0000114 0.0000157 0.0000164 0.0000021-0.0000058
           dy  0.0000060-0.0000046 0.0000042 0.0000015-0.0000005 0.0000002
           dz -0.0000101 0.0000074-0.0000098-0.0000060 0.0000003 0.0000003
  59 h     dx  0.0000031-0.0000051 0.0000041 0.0000009-0.0000006 0.0000005
           dy -0.0000049 0.0000053-0.0000050-0.0000033 0.0000008 0.0000002
           dz -0.0000026 0.0000011-0.0000012-0.0000028-0.0000012 0.0000016
  60 h     dx  0.0000010 0.0000038 0.0000009 0.0000057 0.0000026-0.0000040
           dy  0.0000058 0.0000012 0.0000059 0.0000113 0.0000038-0.0000064
           dz  0.0000021 0.0000036 0.0000039 0.0000116 0.0000031-0.0000059
  61 h     dx -0.0000017 0.0000010-0.0000015-0.0000021 0.0000002 0.0000012
           dy -0.0000062 0.0000058-0.0000048 0.0000007 0.0000002 0.0000004
           dz  0.0000022-0.0000035 0.0000008-0.0000029-0.0000008 0.0000011
  62 h     dx  0.0000634-0.0001172-0.0001430 0.0000016-0.0000067-0.0000160
           dy  0.0000246-0.0000401-0.0000382 0.0000060-0.0000146-0.0000091
           dz -0.0000064 0.0000225 0.0000612 0.0000132 0.0000015-0.0000120
  63 h     dx  0.0000636 0.0000791-0.0000245-0.0000071-0.0000010 0.0000105
           dy -0.0000025-0.0001080-0.0000536-0.0000214-0.0000111 0.0000162
           dz -0.0000428 0.0000416 0.0000587-0.0000227 0.0000026 0.0000309
  64 h     dx  0.0000736 0.0000689 0.0000057 0.0000229-0.0000035-0.0000181
           dy  0.0000115 0.0000003 0.0000079-0.0000025-0.0000071 0.0000031
           dz -0.0001041-0.0001547 0.0000096-0.0000094 0.0000022 0.0000027

   ATOM              7 h                           8 c 
                  dx        dy        dz        dx        dy        dz
   7 h     dx  0.0734831
           dy  0.0444638 0.1352056
           dz -0.0601974-0.1159633 0.2200290
   8 c     dx  0.0000778 0.0005955-0.0000685 0.5419938
           dy -0.0001074 0.0011654-0.0001288-0.0145454 0.4902501
           dz  0.0008367 0.0019324 0.0011490-0.0457141-0.0370218 0.5178057
   9 h     dx  0.0004942 0.0005841-0.0002389-0.0218143 0.0060355 0.0051141
           dy -0.0000498 0.0014190 0.0007426-0.0045887 0.0007329 0.0013025
           dz -0.0007239 0.0000999 0.0005119-0.0256987 0.0072640 0.0056609
  10 h     dx  0.0010636-0.0001162-0.0006934 0.0055125 0.0115562-0.0188267
           dy -0.0001264-0.0062643-0.0022945 0.0015240 0.0019621-0.0039973
           dz -0.0006898-0.0022859 0.0004278 0.0072632 0.0137610-0.0228953
  11 c     dx -0.0000097 0.0001742 0.0000282-0.0776443-0.0008185 0.0007080
           dy  0.0000348 0.0000094-0.0002233 0.0000496-0.1766512-0.0224618
           dz -0.0002418-0.0002800 0.0003406 0.0009111-0.0234642-0.0827405
  12 h     dx -0.0000193-0.0000378-0.0000363-0.2522800 0.0685497 0.0611444
           dy -0.0000500-0.0000046 0.0000251 0.0686872-0.0699831-0.0190733
           dz  0.0000846-0.0001330-0.0000537 0.0611080-0.0189565-0.0657355
  13 h     dx  0.0001240-0.0002582 0.0003918-0.0699182-0.0390011 0.0574791
           dy -0.0001190 0.0003159 0.0002920-0.0391274-0.1203257 0.1056697
           dz -0.0003983-0.0012140 0.0003176 0.0574910 0.1055572-0.1977217
  14 c     dx -0.0000039 0.0000370 0.0000156-0.0019943-0.0039043-0.0025060
           dy -0.0000441 0.0000582 0.0001191-0.0232042-0.0061259-0.0278308
           dz  0.0000125-0.0000884-0.0000292-0.0069448-0.0057440-0.0098671
  15 h     dx -0.0000254 0.0000080 0.0000057 0.0005574-0.0002093-0.0003395
           dy  0.0000292-0.0000264 0.0000132 0.0309186-0.0129794-0.0107857
           dz  0.0000148 0.0000383-0.0000111 0.0082514-0.0031875-0.0034409
  16 h     dx -0.0000067 0.0001280-0.0000134-0.0009304-0.0005560 0.0008570
           dy  0.0001215 0.0003727-0.0000565-0.0110863-0.0213668 0.0258318
           dz -0.0000156-0.0000714-0.0001610-0.0030007-0.0053603 0.0064912
  17 h     dx  0.0000095-0.0000361-0.0000158 0.0008049 0.0010184 0.0004858
           dy -0.0000032-0.0000108 0.0000003 0.0006578 0.0011593-0.0007138
           dz -0.0000271-0.0000688-0.0000003 0.0011328 0.0015401 0.0008200
  18 h     dx -0.0000103 0.0000013 0.0000305-0.0030016 0.0009640-0.0035447
           dy  0.0000007-0.0000071 0.0000143-0.0013388 0.0012645-0.0013115
           dz -0.0000175 0.0000049 0.0000345-0.0040665 0.0013292-0.0040767
  19 h     dx -0.0000120-0.0000068 0.0000101 0.0005220 0.0010509 0.0011757
           dy -0.0000041-0.0000001 0.0000006-0.0009464 0.0008442 0.0007594
           dz  0.0000077 0.0000028-0.0000036 0.0000043 0.0012301 0.0013959
  20 c     dx  0.0007363 0.0005046 0.0010478 0.0007757-0.0016361-0.0002473
           dy  0.0009682 0.0010181 0.0016813 0.0001970 0.0007044 0.0002369
           dz  0.0004066-0.0005913 0.0006446 0.0001779-0.0018734 0.0004347
  21 h     dx -0.0019696-0.0006568-0.0041718-0.0000491 0.0002414-0.0000815
           dy -0.0006590 0.0003020-0.0011752 0.0000027 0.0001695-0.0001793
           dz -0.0041616-0.0011893-0.0031108-0.0002935-0.0003141 0.0002387
  22 h     dx  0.0011300 0.0002485-0.0001948 0.0003846-0.0002379-0.0002965
           dy  0.0004791-0.0000150 0.0000046-0.0001102 0.0000351-0.0000476
           dz  0.0007354 0.0003792 0.0013057-0.0001080 0.0002136-0.0000602
  23 c     dx -0.0000597 0.0000024-0.0002684-0.0000749 0.0002063-0.0000204
           dy  0.0002322 0.0001654-0.0003060 0.0002082-0.0009796 0.0000230
           dz -0.0000901-0.0001807 0.0002353-0.0000237 0.0000291-0.0000330
  24 h     dx  0.0001269-0.0001219-0.0003948 0.0000007-0.0000517 0.0000202
           dy -0.0002529 0.0003048-0.0012213 0.0000405 0.0000449-0.0000830
           dz  0.0003956 0.0002918 0.0003245 0.0000044 0.0001255-0.0000368
  25 h     dx -0.0000363 0.0000298-0.0000252-0.0000415 0.0001080 0.0000121
           dy -0.0001530-0.0000093-0.0000597-0.0001128 0.0000508 0.0000388
           dz  0.0000609-0.0000271-0.0000345 0.0000001-0.0000229 0.0000046
  26 c     dx  0.0000112 0.0000329-0.0000553 0.0000786-0.0002551 0.0000133
           dy -0.0000599-0.0000193-0.0000215-0.0000472 0.0001311-0.0000250
           dz  0.0001279 0.0000598 0.0000174 0.0000660-0.0002600 0.0000273
  27 h     dx -0.0000486-0.0000585 0.0001223 0.0000031 0.0000333 0.0000022
           dy -0.0000590-0.0001252 0.0000052-0.0000083 0.0000247 0.0000059
           dz  0.0001341 0.0000031 0.0003772 0.0000091-0.0000122 0.0000104
  28 h     dx -0.0000282 0.0000209 0.0000192 0.0000111-0.0000216 0.0000068
           dy  0.0000188-0.0000114 0.0000300 0.0000048 0.0000160-0.0000030
           dz -0.0000125 0.0000213-0.0000216-0.0000035 0.0000344 0.0000105
  29 c     dx  0.0000009-0.0000057 0.0000125-0.0000170 0.0000290-0.0000032
           dy  0.0000388 0.0000230-0.0000145 0.0000506-0.0001574 0.0000272
           dz  0.0000043 0.0000072 0.0000041 0.0000030 0.0000119-0.0000038
  30 h     dx  0.0000106-0.0000007-0.0000273 0.0000047-0.0000133 0.0000086
           dy -0.0000331-0.0000093-0.0000713 0.0000041-0.0000100 0.0000091
           dz -0.0000153 0.0000003 0.0000037-0.0000053 0.0000241-0.0000101
  31 h     dx -0.0000078-0.0000019 0.0000121-0.0000160 0.0000232-0.0000038
           dy -0.0000002 0.0000017-0.0000006 0.0000070 0.0000005-0.0000008
           dz  0.0000087 0.0000004-0.0000102 0.0000085-0.0000102 0.0000058
  32 h     dx -0.0000041 0.0000021 0.0000002 0.0000003-0.0000088 0.0000014
           dy  0.0000001-0.0000027 0.0000056-0.0000044 0.0000101-0.0000042
           dz -0.0000026 0.0000003-0.0000018-0.0000026 0.0000055 0.0000001
  33 h     dx  0.0000092 0.0000060-0.0000067 0.0000170-0.0000454 0.0000079
           dy  0.0000070 0.0000065-0.0000131 0.0000223-0.0000420 0.0000160
           dz  0.0000118 0.0000090-0.0000157 0.0000238-0.0000613 0.0000143
  34 h     dx -0.0000027 0.0000027 0.0000009 0.0000001 0.0000031-0.0000007
           dy  0.0000024 0.0000001 0.0000041-0.0000069 0.0000124-0.0000031
           dz  0.0000001 0.0000004 0.0000128 0.0000018-0.0000046-0.0000011
  35 c     dx -0.0003249-0.0001502 0.0001075 0.0007059 0.0001761-0.0007599
           dy  0.0000915 0.0000127 0.0000284 0.0001938-0.0000939-0.0001295
           dz  0.0003467 0.0001015-0.0002479-0.0007391-0.0001021 0.0004673
  36 h     dx -0.0000111-0.0000100 0.0000080-0.0000159 0.0000142-0.0000213
           dy -0.0000251-0.0000012-0.0000022-0.0001436-0.0000151 0.0000428
           dz  0.0000182-0.0000100-0.0000178-0.0000143 0.0000057-0.0000105
  37 h     dx  0.0000645 0.0000041-0.0000822-0.0000183 0.0000008 0.0000181
           dy -0.0000777-0.0000374 0.0000322 0.0000521 0.0000171-0.0001197
           dz  0.0000041-0.0000232-0.0000346-0.0000139 0.0000178-0.0000443
  38 c     dx  0.0000767 0.0000264-0.0000339-0.0002750-0.0000814 0.0001727
           dy -0.0001252-0.0000319 0.0000492-0.0001078-0.0000901-0.0000267
           dz -0.0001576-0.0000455 0.0000904 0.0001462-0.0000349-0.0002320
  39 h     dx  0.0000984 0.0001984-0.0002973-0.0002311-0.0000080 0.0003550
           dy  0.0001197-0.0000131 0.0001322-0.0000455 0.0000221 0.0001802
           dz -0.0004782 0.0000402 0.0000497 0.0001089-0.0001417-0.0001537
  40 h     dx -0.0001006-0.0000097 0.0000486-0.0002930-0.0001253 0.0001270
           dy -0.0000095 0.0000119-0.0000218 0.0000685-0.0001118 0.0000237
           dz  0.0000465-0.0000193 0.0000123 0.0003848 0.0001145-0.0001681
  41 c     dx -0.0000091-0.0000328 0.0000017 0.0006324 0.0001372-0.0006166
           dy -0.0000437 0.0000048 0.0000254 0.0001811-0.0001197-0.0001216
           dz  0.0000359 0.0000221-0.0000173-0.0005809-0.0001547 0.0004373
  42 h     dx  0.0000840 0.0000317-0.0000451-0.0000249-0.0000262 0.0000901
           dy  0.0000041-0.0000019-0.0000019 0.0000895 0.0000541-0.0000558
           dz  0.0000699 0.0000161-0.0000338-0.0000188 0.0000320 0.0000405
  43 h     dx  0.0000064-0.0000057-0.0000005 0.0000432 0.0000358-0.0000292
           dy  0.0000031 0.0000071-0.0000059-0.0000860 0.0000274 0.0000860
           dz  0.0000363 0.0000041-0.0000091 0.0000925 0.0000089-0.0000052
  44 c     dx  0.0001388-0.0000275-0.0001697-0.0000432 0.0000078-0.0000029
           dy  0.0000623 0.0000036-0.0000643 0.0000146-0.0000163 0.0000173
           dz  0.0000151-0.0000079-0.0000178 0.0000057 0.0000060-0.0000346
  45 h     dx -0.0000564-0.0000020 0.0000381 0.0000281-0.0000380 0.0000496
           dy -0.0000001 0.0000315-0.0000232 0.0000039-0.0000009 0.0000026
           dz  0.0000410-0.0000208-0.0000260 0.0000272 0.0000236-0.0000602
  46 h     dx  0.0002688 0.0000340-0.0002727-0.0000733 0.0000131 0.0000107
           dy  0.0002030-0.0002781-0.0001015-0.0000215 0.0000124-0.0000078
           dz -0.0001318 0.0000465 0.0001864 0.0000377-0.0000334 0.0000341
  47 c     dx  0.0000268 0.0000036 0.0000220 0.0000299-0.0000276 0.0000088
           dy -0.0000392-0.0000002 0.0000262-0.0000277 0.0000324-0.0000268
           dz  0.0000479 0.0000000-0.0000593 0.0000080-0.0000213 0.0000178
  48 h     dx -0.0000086 0.0000016 0.0000167-0.0000005 0.0000015 0.0000016
           dy -0.0000236 0.0000111 0.0000153-0.0000060-0.0000099 0.0000224
           dz -0.0000003-0.0000030 0.0000026-0.0000051 0.0000106-0.0000064
  49 h     dx  0.0000117 0.0000010-0.0000246-0.0000138 0.0000117-0.0000038
           dy -0.0000754 0.0000105 0.0000886 0.0000203-0.0000038-0.0000012
           dz -0.0000249 0.0000026 0.0000323 0.0000042 0.0000025-0.0000001
  50 c     dx -0.0000180-0.0000043-0.0000006-0.0000153 0.0000132-0.0000115
           dy  0.0000224-0.0000005-0.0000259 0.0000051-0.0000018 0.0000034
           dz -0.0000292-0.0000013 0.0000218-0.0000091 0.0000122-0.0000114
  51 h     dx  0.0000043 0.0000051-0.0000183 0.0000148-0.0000248 0.0000117
           dy  0.0000058 0.0000014-0.0000071 0.0000017-0.0000023 0.0000022
           dz -0.0000178-0.0000058 0.0000220-0.0000125 0.0000253-0.0000209
  52 h     dx -0.0000043-0.0000066-0.0000212-0.0000296 0.0000276-0.0000111
           dy  0.0000053-0.0000041-0.0000065-0.0000058 0.0000109-0.0000060
           dz  0.0000028 0.0000060-0.0000122 0.0000115-0.0000203 0.0000074
  53 c     dx  0.0000146 0.0000012-0.0000146 0.0000049-0.0000151 0.0000041
           dy -0.0000203-0.0000017 0.0000234-0.0000135 0.0000155-0.0000094
           dz  0.0000096 0.0000017-0.0000213 0.0000061-0.0000062 0.0000003
  54 h     dx  0.0000017 0.0000005 0.0000009 0.0000004-0.0000024 0.0000025
           dy  0.0000022 0.0000036-0.0000052 0.0000041-0.0000116 0.0000095
           dz -0.0000006-0.0000016 0.0000038-0.0000020 0.0000061-0.0000039
  55 h     dx -0.0000005-0.0000002-0.0000019-0.0000082 0.0000089-0.0000028
           dy -0.0000015 0.0000022 0.0000092 0.0000087-0.0000092 0.0000037
           dz  0.0000008 0.0000007 0.0000036 0.0000045-0.0000032 0.0000014
  56 c     dx -0.0000083 0.0000010 0.0000061-0.0000073 0.0000021-0.0000049
           dy  0.0000065-0.0000010-0.0000052-0.0000027 0.0000041 0.0000005
           dz -0.0000145 0.0000001 0.0000139-0.0000017 0.0000062-0.0000060
  57 h     dx  0.0000019 0.0000022-0.0000078 0.0000081-0.0000115 0.0000032
           dy  0.0000024 0.0000006-0.0000038-0.0000019-0.0000023 0.0000048
           dz -0.0000073-0.0000027 0.0000138-0.0000057 0.0000133-0.0000083
  58 h     dx -0.0000063-0.0000010 0.0000059-0.0000119 0.0000150-0.0000054
           dy  0.0000003-0.0000012 0.0000025-0.0000030 0.0000054-0.0000023
           dz  0.0000009 0.0000015-0.0000052 0.0000056-0.0000097 0.0000045
  59 h     dx  0.0000011 0.0000004-0.0000026-0.0000041 0.0000040-0.0000013
           dy  0.0000003 0.0000003 0.0000000 0.0000037-0.0000052 0.0000020
           dz  0.0000015 0.0000002-0.0000018 0.0000024-0.0000027 0.0000011
  60 h     dx -0.0000044-0.0000004 0.0000061-0.0000012 0.0000000-0.0000009
           dy -0.0000077-0.0000006 0.0000104-0.0000031 0.0000041-0.0000021
           dz -0.0000077-0.0000004 0.0000093-0.0000015 0.0000018-0.0000013
  61 h     dx  0.0000019 0.0000004-0.0000024 0.0000005-0.0000017 0.0000005
           dy  0.0000007 0.0000015-0.0000036 0.0000024-0.0000061 0.0000036
           dz  0.0000009-0.0000009 0.0000001-0.0000001 0.0000026-0.0000022
  62 h     dx  0.0000061 0.0000096-0.0000112-0.0002895 0.0001067 0.0003051
           dy  0.0000101-0.0000003-0.0000098-0.0001242 0.0000187 0.0001171
           dz -0.0000174-0.0000126 0.0000155 0.0000149 0.0000587-0.0002174
  63 h     dx  0.0000250 0.0000140-0.0000104-0.0001615-0.0001359 0.0001704
           dy  0.0000220-0.0000001-0.0000206-0.0000331 0.0001065 0.0000752
           dz  0.0000194 0.0000035-0.0000118 0.0001948-0.0000589-0.0001219
  64 h     dx -0.0000078 0.0000030 0.0000099-0.0002757-0.0000399 0.0000575
           dy -0.0000074-0.0000156 0.0000056-0.0000230 0.0000131-0.0000793
           dz -0.0000187-0.0000132 0.0000007 0.0002759 0.0002182-0.0002085

   ATOM              9 h                          10 h 
                  dx        dy        dz        dx        dy        dz
   9 h     dx  0.2779726
           dy -0.0760951 0.0786362
           dz -0.0641202 0.0240755 0.0707778
  10 h     dx -0.0093657-0.0167457 0.0239120 0.0738234
           dy  0.0025102 0.0054719-0.0081194 0.0444450 0.1345701
           dz  0.0031004 0.0045207-0.0074341-0.0604271-0.1153319 0.2191835
  11 c     dx  0.0003036-0.0008056-0.0000425 0.0007061 0.0004896 0.0010640
           dy  0.0011703 0.0008005 0.0011646 0.0009422 0.0010015 0.0016625
           dz  0.0011727 0.0006129 0.0012406 0.0004013-0.0005902 0.0006328
  12 h     dx -0.0015454-0.0006852-0.0041319 0.0011202 0.0002473-0.0001974
           dy -0.0007093 0.0002683-0.0010435 0.0004702-0.0000143-0.0000050
           dz -0.0041379-0.0010201-0.0035061 0.0007331 0.0003743 0.0013188
  13 h     dx  0.0011270 0.0004697 0.0007350-0.0019869-0.0006324-0.0041685
           dy  0.0002456-0.0000164 0.0003762-0.0006532 0.0003068-0.0011757
           dz -0.0001979-0.0000011 0.0013019-0.0041820-0.0011461-0.0031061
  14 c     dx  0.0004231-0.0000807-0.0000513-0.0000395 0.0000187-0.0002857
           dy -0.0002322 0.0000259 0.0002029 0.0002240 0.0001556-0.0003233
           dz -0.0002892-0.0000305-0.0000417-0.0000367-0.0001481 0.0002929
  15 h     dx  0.0005122 0.0002574 0.0005300-0.0000388 0.0000325-0.0000154
           dy -0.0010694 0.0002216-0.0002678-0.0001505-0.0000053-0.0000596
           dz -0.0006159-0.0001264 0.0000292 0.0000649-0.0000293-0.0000418
  16 h     dx -0.0000320-0.0000598 0.0000877 0.0001118-0.0001108-0.0004405
           dy -0.0000458-0.0000033-0.0001319-0.0002512 0.0003025-0.0012503
           dz -0.0000309 0.0000322-0.0000546 0.0003631 0.0002906 0.0003179
  17 h     dx -0.0000287 0.0000208-0.0000154-0.0000407-0.0000546 0.0001451
           dy  0.0000311-0.0000097 0.0000181-0.0000464-0.0001251 0.0000238
           dz  0.0000200 0.0000282-0.0000197 0.0001184 0.0000034 0.0003635
  18 h     dx -0.0000037 0.0000287 0.0001271 0.0000087 0.0000184-0.0000625
           dy -0.0000919-0.0000032-0.0000229-0.0000327 0.0000060-0.0001101
           dz -0.0000891 0.0000061 0.0000118 0.0001145 0.0000578-0.0000097
  19 h     dx  0.0002976 0.0000702 0.0001842-0.0000287 0.0000183 0.0000157
           dy  0.0000845-0.0000874-0.0000227 0.0000137-0.0000139 0.0000391
           dz  0.0002150-0.0000282-0.0000126-0.0000166 0.0000227-0.0000169
  20 c     dx  0.0004780-0.0001633-0.0002491-0.0000113 0.0001887 0.0000258
           dy -0.0001115-0.0001058-0.0000650 0.0000224 0.0000076-0.0002112
           dz  0.0000173 0.0001526-0.0000101-0.0002602-0.0002921 0.0003627
  21 h     dx -0.0000384-0.0001500 0.0000657 0.0001105-0.0002480 0.0003607
           dy  0.0000295-0.0000063-0.0000284-0.0001116 0.0002850 0.0002931
           dz -0.0000184-0.0000598-0.0000372-0.0004394-0.0012389 0.0003077
  22 h     dx  0.0004973-0.0010599-0.0006095-0.0000277-0.0000435-0.0000329
           dy  0.0002632 0.0002108-0.0001273-0.0000578-0.0000031 0.0000276
           dz  0.0005277-0.0002681 0.0000290 0.0000893-0.0001312-0.0000544
  23 c     dx -0.0000452-0.0001051-0.0000040-0.0000096 0.0000308 0.0000117
           dy  0.0001010 0.0000441-0.0000174-0.0000444 0.0000413 0.0001195
           dz  0.0000232 0.0000319-0.0000054 0.0000149-0.0000815-0.0000381
  24 h     dx -0.0000248 0.0000302 0.0000149-0.0000066 0.0001197-0.0000144
           dy  0.0000080-0.0000267 0.0000359 0.0001288 0.0003698-0.0000682
           dz  0.0000052 0.0000136-0.0000113-0.0000146-0.0000608-0.0001601
  25 h     dx -0.0000947-0.0001619-0.0000905-0.0000232 0.0000097 0.0000055
           dy -0.0001727 0.0002561 0.0001643 0.0000332-0.0000248 0.0000125
           dz -0.0000920 0.0001549 0.0000413 0.0000152 0.0000340-0.0000124
  26 c     dx  0.0000246 0.0000142-0.0000100-0.0000040 0.0000023 0.0000268
           dy -0.0000090 0.0000107 0.0000044 0.0000046 0.0000120-0.0000049
           dz  0.0000284 0.0000123 0.0000021-0.0000137 0.0000098 0.0000281
  27 h     dx -0.0000031 0.0000006 0.0000049 0.0000076-0.0000308-0.0000137
           dy -0.0000016 0.0000019-0.0000001-0.0000018-0.0000098-0.0000006
           dz  0.0000071-0.0000011-0.0000054-0.0000286-0.0000705 0.0000009
  28 h     dx  0.0000197-0.0000527-0.0000390-0.0000063-0.0000045 0.0000061
           dy  0.0000070-0.0000126-0.0000115-0.0000025 0.0000008 0.0000003
           dz -0.0000036-0.0000440-0.0000076 0.0000040 0.0000019-0.0000013
[...]
                  z  -0.01886  0.01465  0.01945  0.01818 -0.00177  0.00319
 48   h           x  -0.02390  0.00796  0.06631  0.06208 -0.00232  0.00458
                  y  -0.04745  0.01598  0.13105  0.12296 -0.00478  0.00937
                  z   0.06762 -0.02556 -0.17475 -0.16303  0.00701 -0.01312
 49   h           x  -0.08208  0.02939  0.21171  0.19580 -0.00848  0.01531
                  y   0.02585 -0.00786 -0.07277 -0.06787  0.00260 -0.00499
                  z   0.01945 -0.00567 -0.05556 -0.05165  0.00184 -0.00359
 50   c           x   0.02241 -0.01561 -0.01571 -0.01233  0.00690 -0.00590
                  y   0.00464 -0.00333 -0.00327 -0.00262  0.00146 -0.00128
                  z  -0.01856  0.01303  0.01302  0.01027 -0.00573  0.00495
 51   h           x  -0.06315  0.05029  0.06457  0.06102 -0.00644  0.01149
                  y  -0.12695  0.09993  0.13039  0.12258 -0.01358  0.02293
                  z   0.16564 -0.13016 -0.17370 -0.16407  0.01581 -0.02889
 52   h           x  -0.21759  0.16263  0.22324  0.20418 -0.02098  0.03452
                  y   0.07708 -0.05801 -0.07735 -0.07053  0.00852 -0.01298
                  z   0.05822 -0.04373 -0.05766 -0.05231  0.00623 -0.00961
 53   c           x   0.01748 -0.01315 -0.00898 -0.00649  0.01939 -0.01510
                  y   0.00316 -0.00261 -0.00167 -0.00129  0.00394 -0.00315
                  z  -0.01398  0.01076  0.00723  0.00532 -0.01597  0.01252
 54   h           x  -0.06369  0.04485  0.04521  0.03600 -0.01861  0.01631
                  y  -0.12522  0.08819  0.08909  0.07109 -0.03768  0.03304
                  z   0.16495 -0.11618 -0.11541 -0.09128  0.05332 -0.04594
 55   h           x  -0.20101  0.13952  0.14091  0.11037 -0.06323  0.05399
                  y   0.07040 -0.04889 -0.05046 -0.04000  0.02039 -0.01780
                  z   0.05433 -0.03766 -0.03890 -0.03074  0.01490 -0.01303
 56   c           x  -0.01011  0.00853  0.00729  0.00739  0.05215 -0.03550
                  y  -0.00211  0.00178  0.00153  0.00155  0.01175 -0.00787
                  z   0.00813 -0.00703 -0.00592 -0.00611 -0.04571  0.03055
 57   h           x  -0.04585  0.03600  0.02354  0.01745 -0.05398  0.04269
                  y  -0.09339  0.07268  0.04834  0.03580 -0.10651  0.08380
                  z   0.12589 -0.09815 -0.06626 -0.04964  0.13903 -0.10996
 58   h           x  -0.16398  0.12175  0.08480  0.06100 -0.17288  0.13417
                  y   0.05569 -0.04135 -0.02829 -0.02012  0.06081 -0.04698
                  z   0.04181 -0.03092 -0.02089 -0.01466  0.04732 -0.03646
 59   h           x   0.09218 -0.07841 -0.06628 -0.06752 -0.48054  0.32602
                  y  -0.03215  0.02744  0.02314  0.02374  0.17589 -0.11953
                  z  -0.02605  0.02224  0.01877  0.01926  0.14074 -0.09567
 60   h           x  -0.00192  0.00256  0.00156  0.00207  0.02309 -0.01302
                  y  -0.00053  0.00057  0.00039  0.00046  0.00453 -0.00264
                  z   0.00483 -0.00268 -0.00304 -0.00217  0.00155  0.00220
 61   h           x   0.03011 -0.02561 -0.02176 -0.02225 -0.16676  0.11216
                  y   0.05792 -0.04913 -0.04178 -0.04264 -0.32106  0.21642
                  z  -0.07566  0.06403  0.05451  0.05535  0.40472 -0.27248
 62   h           x  -0.02134  0.02943 -0.00967 -0.02153  0.00093  0.01754
                  y  -0.04128  0.05742 -0.01855 -0.04200  0.00183  0.03451
                  z   0.05484 -0.07576  0.02477  0.05513 -0.00233 -0.04370
 63   h           x   0.00296 -0.00281  0.00136  0.00190  0.00005 -0.00168
                  y   0.00062 -0.00066  0.00028  0.00044  0.00001 -0.00037
                  z  -0.00158  0.00391 -0.00051 -0.00266  0.00022  0.00089
 64   h           x  -0.06676  0.09032 -0.03047 -0.06590  0.00300  0.05266
                  y   0.02255 -0.03083  0.01020  0.02264 -0.00108 -0.01905
                  z   0.01814 -0.02464  0.00828  0.01812 -0.00086 -0.01502

reduced mass(g/mol)     1.106    1.105    1.105    1.105    1.102    1.103


       mode             187      188      189      190      191      192

     frequency        3083.24  3085.43  3086.38  3086.58  3086.66  3088.32

     symmetry            a        a        a        a        a        a   

        IR               YES      YES      YES      YES      YES      YES
|dDIP/dQ|   (a.u.)     0.0049   0.0056   0.0045   0.0066   0.0083   0.0050
intensity (km/mol)      43.23    55.76    36.52    78.04   121.10    45.11
intensity (  %   )      12.99    16.76    10.98    23.46    36.40    13.56
 
       RAMAN             YES      YES      YES      YES      YES      YES
 
  1   c           x   0.00078  0.00006 -0.00001  0.00011 -0.00067  0.00011
                  y   0.00015 -0.00003 -0.00001  0.00008 -0.00013 -0.00009
                  z  -0.00067 -0.00003  0.00002 -0.00015  0.00058  0.00004
  2   c           x   0.00104  0.00011  0.00001  0.00036 -0.00153  0.00014
                  y   0.00020 -0.00013 -0.00001  0.00003 -0.00033 -0.00009
                  z  -0.00089  0.00006  0.00001 -0.00025  0.00136 -0.00001
  3   c           x  -0.00010  0.00008  0.00008  0.00027 -0.00133  0.00004
                  y  -0.00002 -0.00011 -0.00008  0.00008 -0.00028  0.00002
                  z   0.00008  0.00006  0.00004 -0.00025  0.00110 -0.00006
  4   c           x  -0.00103  0.00001  0.00001  0.00041 -0.00270 -0.00019
                  y  -0.00022 -0.00001  0.00002  0.00040 -0.00049  0.00055
                  z   0.00086  0.00001 -0.00002 -0.00059  0.00218 -0.00031
  5   c           x   0.00250  0.00001  0.00000  0.00018 -0.00219  0.00047
                  y   0.00050 -0.00001  0.00000  0.00038 -0.00040 -0.00039
                  z  -0.00218 -0.00001 -0.00001 -0.00062  0.00186  0.00025
  6   h           x  -0.00984 -0.00176 -0.00019 -0.00318  0.01389 -0.00223
                  y   0.00389  0.00052  0.00005  0.00110 -0.00527  0.00085
                  z   0.00287  0.00049  0.00008  0.00087 -0.00397  0.00082
  7   h           x  -0.00299  0.00046  0.00008 -0.00089  0.00450  0.00047
                  y  -0.00635  0.00078  0.00010 -0.00187  0.00918  0.00066
                  z   0.00819 -0.00122 -0.00016  0.00236 -0.01231 -0.00080
  8   c           x   0.00659  0.00004  0.00001  0.00105 -0.00574  0.00096
                  y   0.00131 -0.00006 -0.00000  0.00016 -0.00127 -0.00080
                  z  -0.00573  0.00004 -0.00002 -0.00120  0.00507  0.00040
  9   h           x  -0.02414 -0.00027  0.00001 -0.00011  0.02124 -0.00727
                  y   0.00768  0.00011  0.00002  0.00038 -0.00692  0.00203
                  z   0.00560  0.00011  0.00001  0.00019 -0.00508  0.00162
 10   h           x  -0.00648  0.00007 -0.00001 -0.00223  0.00559  0.00144
                  y  -0.01380  0.00011 -0.00004 -0.00456  0.01187  0.00277
                  z   0.02113 -0.00013  0.00010  0.00743 -0.01761 -0.00476
 11   c           x   0.01884 -0.00004 -0.00013 -0.00128 -0.01028  0.00301
                  y   0.00383  0.00004  0.00024  0.00528 -0.00109 -0.00362
                  z  -0.01650 -0.00001 -0.00015 -0.00432  0.00802  0.00152
 12   h           x  -0.05989 -0.00068 -0.00007 -0.00772  0.05165 -0.01628
                  y   0.02343  0.00018 -0.00005  0.00151 -0.01955  0.00605
                  z   0.01779  0.00020 -0.00001  0.00157 -0.01506  0.00607
 13   h           x  -0.01874  0.00025 -0.00009 -0.00461  0.01648  0.00486
                  y  -0.03916  0.00040 -0.00023 -0.01007  0.03345  0.00767
                  z   0.05063 -0.00064  0.00019  0.01128 -0.04550 -0.00982
 14   c           x   0.05595 -0.00014 -0.00061 -0.00805 -0.03028  0.01155
                  y   0.01188  0.00073  0.00362  0.07378  0.00744 -0.05098
                  z  -0.04892  0.00007 -0.00002 -0.00382  0.02440 -0.00187
 15   h           x  -0.16871  0.00043  0.00225  0.03410  0.09651 -0.04484
                  y   0.05760 -0.00014 -0.00074 -0.01107 -0.03309  0.01505
                  z   0.04632 -0.00011 -0.00064 -0.00988 -0.02658  0.01278
 16   h           x  -0.05093 -0.00008 -0.00085 -0.02147  0.02338  0.01112
                  y  -0.10212 -0.00016 -0.00163 -0.04152  0.04751  0.02109
                  z   0.14590  0.00024  0.00235  0.05980 -0.06738 -0.03034
 17   h           x  -0.15399 -0.00069 -0.00470 -0.10551  0.05960  0.06115
                  y  -0.31078 -0.00105 -0.00752 -0.17330  0.12694  0.09379
                  z   0.46165  0.00184  0.01269  0.28802 -0.18354 -0.16206
 18   h           x   0.01372 -0.00024 -0.00099 -0.01902 -0.01012  0.01437
                  y  -0.00281 -0.00702 -0.03266 -0.65805 -0.11876  0.46239
                  z  -0.01360 -0.00187 -0.00870 -0.17623 -0.02564  0.12229
 19   h           x  -0.52938  0.00267  0.01303  0.22274  0.31336 -0.21527
                  y   0.17142 -0.00067 -0.00319 -0.05145 -0.09746  0.05429
                  z   0.13743 -0.00074 -0.00369 -0.06389 -0.08253  0.06048
 20   c           x   0.00113  0.00060 -0.00014  0.00011 -0.00054  0.00002
                  y   0.00021 -0.00052  0.00008  0.00003 -0.00010  0.00001
                  z  -0.00097  0.00034 -0.00005 -0.00010  0.00047 -0.00002
 21   h           x  -0.00214  0.00025  0.00002 -0.00054  0.00178  0.00029
                  y  -0.00442  0.00038  0.00006 -0.00106  0.00373  0.00051
                  z   0.00624 -0.00035 -0.00014  0.00158 -0.00554 -0.00084
 22   h           x  -0.00729 -0.00125  0.00009 -0.00088  0.00636 -0.00154
                  y   0.00257  0.00056 -0.00008  0.00031 -0.00211  0.00046
                  z   0.00193  0.00050 -0.00007  0.00019 -0.00155  0.00038
 23   c           x   0.00213  0.00077 -0.00028  0.00007 -0.00038  0.00004
                  y   0.00042 -0.00033  0.00011  0.00003 -0.00007 -0.00004
                  z  -0.00185  0.00025 -0.00005 -0.00008  0.00032  0.00001
 24   h           x  -0.00292  0.00186 -0.00020 -0.00039  0.00149 -0.00001
                  y  -0.00621  0.00348 -0.00049 -0.00077  0.00308 -0.00007
                  z   0.00919 -0.00612  0.00099  0.00106 -0.00422  0.00012
 25   h           x  -0.01080 -0.00915  0.00196 -0.00091  0.00502 -0.00033
                  y   0.00361  0.00247 -0.00051  0.00034 -0.00183  0.00013
                  z   0.00258  0.00200 -0.00032  0.00023 -0.00136  0.00012
 26   c           x   0.00577  0.00522 -0.00180  0.00014 -0.00063 -0.00002
                  y   0.00106 -0.00615  0.00194  0.00003 -0.00009  0.00006
                  z  -0.00490  0.00283 -0.00081 -0.00012  0.00052 -0.00005
 27   h           x  -0.00599  0.00333 -0.00098 -0.00029  0.00100  0.00007
                  y  -0.01217  0.00595 -0.00173 -0.00058  0.00207  0.00012
                  z   0.01646 -0.00614  0.00169  0.00085 -0.00297 -0.00022
 28   h           x  -0.01937 -0.01254  0.00433 -0.00056  0.00352 -0.00054
                  y   0.00717  0.00560 -0.00194  0.00021 -0.00122  0.00015
                  z   0.00548  0.00477 -0.00164  0.00014 -0.00091  0.00013
 29   c           x   0.01295  0.01883 -0.00602  0.00025 -0.00114 -0.00008
                  y   0.00298 -0.08530  0.02615  0.00005  0.00001  0.00069
                  z  -0.01128 -0.00074  0.00047 -0.00022  0.00095 -0.00000
 30   h           x  -0.01491  0.01923 -0.00598 -0.00041  0.00156 -0.00020
                  y  -0.03014  0.03597 -0.01103 -0.00081  0.00317 -0.00041
                  z   0.04384 -0.05332  0.01651  0.00116 -0.00454  0.00061
 31   h           x  -0.05275 -0.07781  0.02642 -0.00121  0.00590  0.00032
                  y   0.01775  0.02536 -0.00847  0.00041 -0.00202 -0.00010
                  z   0.01358  0.02097 -0.00710  0.00031 -0.00154 -0.00008
 32   h           x  -0.12234 -0.33994  0.10657 -0.00233  0.01124  0.00182
                  y   0.03784  0.08061 -0.02554  0.00073 -0.00339 -0.00037
                  z   0.02975  0.09052 -0.02837  0.00057 -0.00274 -0.00050
 33   h           x   0.00314  0.00998 -0.00327  0.00007 -0.00029 -0.00009
                  y  -0.00290  0.78479 -0.24100  0.00009 -0.00212 -0.00676
                  z  -0.00363  0.19158 -0.05891 -0.00003 -0.00028 -0.00167
 34   h           x  -0.03584  0.10241 -0.03071 -0.00071  0.00269 -0.00081
                  y  -0.07067  0.15538 -0.04631 -0.00140  0.00545 -0.00124
                  z   0.10891 -0.27583  0.08237  0.00216 -0.00832  0.00221
 35   c           x  -0.00319  0.00004  0.00005  0.00146 -0.00746  0.00001
                  y  -0.00069 -0.00006 -0.00001  0.00069 -0.00151  0.00072
                  z   0.00266  0.00004 -0.00001 -0.00139  0.00616 -0.00044
 36   h           x   0.00322  0.00009 -0.00006 -0.00292  0.00781 -0.00250
                  y   0.00654  0.00016 -0.00013 -0.00576  0.01601 -0.00472
                  z  -0.00767 -0.00024  0.00012  0.00671 -0.01939  0.00534
 37   h           x   0.00947 -0.00025 -0.00013 -0.00225  0.02545  0.00468
                  y  -0.00381  0.00006  0.00002  0.00077 -0.00996 -0.00197
                  z  -0.00288  0.00006  0.00002  0.00045 -0.00748 -0.00171
 38   c           x  -0.00950 -0.00007 -0.00001  0.00160 -0.01910 -0.00285
                  y  -0.00207  0.00005  0.00011  0.00385 -0.00315  0.00487
                  z   0.00793 -0.00001 -0.00012 -0.00535  0.01478 -0.00379
 39   h           x   0.02975 -0.00058 -0.00044 -0.00908  0.07029  0.00764
                  y  -0.00938  0.00019  0.00017  0.00354 -0.02219 -0.00130
                  z  -0.00664  0.00022  0.00014  0.00259 -0.01590 -0.00110
 40   h           x   0.00839  0.00029  0.00001 -0.00551  0.01940 -0.00349
                  y   0.01759  0.00046 -0.00003 -0.01140  0.04025 -0.00674
                  z  -0.02510 -0.00060  0.00010  0.01739 -0.05661  0.01162
 41   c           x  -0.02872 -0.00084 -0.00085 -0.02060 -0.06715 -0.04639
                  y  -0.00632  0.00018  0.00034  0.01287 -0.00975  0.01650
                  z   0.02412 -0.00076 -0.00137 -0.04732  0.03779 -0.05669
 42   h           x   0.08344  0.00081  0.00046 -0.00025  0.17266  0.04792
                  y  -0.02847 -0.00028 -0.00015  0.00061 -0.05918 -0.01593
                  z  -0.02257 -0.00023 -0.00013 -0.00014 -0.04682 -0.01352
 43   h           x   0.02690 -0.00009 -0.00054 -0.02271  0.04895 -0.02049
                  y   0.05255 -0.00018 -0.00104 -0.04349  0.09642 -0.03854
                  z  -0.06950  0.00023  0.00138  0.05793 -0.12680  0.05126
 44   c           x   0.00025 -0.00002  0.00006  0.00010 -0.00061 -0.00004
                  y   0.00006  0.00001 -0.00000  0.00006 -0.00012  0.00009
                  z  -0.00021 -0.00000 -0.00001 -0.00013  0.00049 -0.00007
 45   h           x   0.00015  0.00048  0.00032 -0.00089  0.00353 -0.00033
                  y   0.00045  0.00074  0.00055 -0.00184  0.00738 -0.00061
                  z  -0.00100 -0.00103 -0.00068  0.00272 -0.01050  0.00107
 46   h           x   0.00122 -0.00128 -0.00116 -0.00219  0.01269  0.00025
                  y  -0.00021  0.00038  0.00042  0.00076 -0.00403  0.00004
                  z  -0.00007  0.00041  0.00037  0.00051 -0.00281 -0.00001
 47   c           x   0.00091  0.00001  0.00049  0.00006 -0.00043  0.00002
                  y   0.00020 -0.00012 -0.00065  0.00006 -0.00008 -0.00000
                  z  -0.00076  0.00008  0.00021 -0.00009  0.00035 -0.00001
 48   h           x  -0.00066  0.00005  0.00013 -0.00053  0.00176 -0.00043
                  y  -0.00138  0.00006  0.00019 -0.00103  0.00357 -0.00078
                  z   0.00213 -0.00010 -0.00051  0.00130 -0.00443  0.00098
 49   h           x  -0.00239  0.00011 -0.00128 -0.00076  0.00562  0.00078
                  y   0.00068 -0.00003  0.00027  0.00031 -0.00213 -0.00027
                  z   0.00046 -0.00001  0.00022  0.00021 -0.00160 -0.00026
 50   c           x   0.00143 -0.00007  0.00057  0.00003 -0.00030 -0.00001
                  y   0.00031 -0.00012 -0.00069  0.00006 -0.00006  0.00004
                  z  -0.00120  0.00002  0.00001 -0.00006  0.00025 -0.00003
 51   h           x  -0.00278  0.00046  0.00253 -0.00043  0.00115 -0.00007
                  y  -0.00551  0.00103  0.00457 -0.00083  0.00237 -0.00012
                  z   0.00690 -0.00110 -0.00514  0.00109 -0.00323  0.00020
 52   h           x  -0.00820 -0.00049 -0.00831 -0.00033  0.00407 -0.00005
                  y   0.00311  0.00030  0.00341  0.00010 -0.00138  0.00004
                  z   0.00232  0.00017  0.00288  0.00004 -0.00099  0.00001
 53   c           x   0.00370  0.00085  0.00520 -0.00014 -0.00047  0.00004
                  y   0.00077 -0.00137 -0.00577  0.00029 -0.00005 -0.00003
                  z  -0.00307  0.00106  0.00322 -0.00024  0.00034  0.00001
 54   h           x  -0.00396  0.00056  0.00247 -0.00035  0.00083 -0.00016
                  y  -0.00802  0.00106  0.00453 -0.00067  0.00167 -0.00029
                  z   0.01117 -0.00208 -0.00876  0.00100 -0.00217  0.00036
 55   h           x  -0.01310 -0.00107 -0.01420  0.00017  0.00283  0.00025
                  y   0.00431  0.00003  0.00331  0.00002 -0.00100 -0.00009
                  z   0.00315  0.00004  0.00256  0.00000 -0.00075 -0.00009
 56   c           x   0.00864  0.01727  0.05830 -0.00255 -0.00120  0.00040
                  y   0.00191 -0.00545 -0.01758  0.00087 -0.00006 -0.00008
                  z  -0.00743  0.01997  0.06254 -0.00310  0.00029  0.00040
 57   h           x  -0.01047  0.00497  0.02107 -0.00128  0.00108  0.00007
                  y  -0.02055  0.01034  0.03867 -0.00239  0.00216  0.00014
                  z   0.02696 -0.01349 -0.05136  0.00319 -0.00287 -0.00018
 58   h           x  -0.03287 -0.01295 -0.07485  0.00263  0.00441 -0.00051
                  y   0.01151  0.00470  0.02545 -0.00089 -0.00152  0.00018
                  z   0.00893  0.00324  0.02136 -0.00076 -0.00117  0.00014
 59   h           x  -0.07937 -0.08968 -0.31767  0.01313  0.00962 -0.00188
                  y   0.02910  0.03111  0.11085 -0.00455 -0.00351  0.00066
                  z   0.02329  0.03398  0.11805 -0.00502 -0.00300  0.00071
 60   h           x   0.00313 -0.15695 -0.50449  0.02377  0.00306 -0.00352
                  y   0.00064 -0.02732 -0.08867  0.00418  0.00053 -0.00063
                  z  -0.00058 -0.19480 -0.62763  0.02947  0.00422 -0.00440
 61   h           x  -0.02729  0.04014  0.12435 -0.00643  0.00175  0.00063
                  y  -0.05267  0.06257  0.19184 -0.01015  0.00371  0.00091
                  z   0.06631 -0.07771 -0.23805  0.01261 -0.00467 -0.00112
 62   h           x   0.08772 -0.00126 -0.00289 -0.11186  0.15460 -0.12276
                  y   0.17247 -0.00188 -0.00482 -0.19181  0.31134 -0.19640
                  z  -0.21869  0.00232  0.00600  0.24069 -0.39605  0.24687
 63   h           x  -0.00784  0.00670  0.00959  0.29217  0.06773  0.42216
                  y  -0.00172  0.00132  0.00188  0.05687  0.01280  0.08203
                  z   0.00519  0.00843  0.01188  0.35878  0.11404  0.52623
 64   h           x   0.26386  0.00469  0.00354  0.06677  0.58098  0.25617
                  y  -0.09519 -0.00163 -0.00120 -0.02131 -0.20795 -0.08649
                  z  -0.07525 -0.00165 -0.00146 -0.03336 -0.17003 -0.09518

reduced mass(g/mol)     1.102    1.101    1.101    1.101    1.102    1.101
 

         **************************************************************
         *                                                            *
         *  zero point VIBRATIONAL energy  :      0.6030006  Hartree  *
         *    SCF-energy                   :   -789.0836056           *
         *    SCF + E(vib0)                :   -788.4806049           *
         *                                                            *
         **************************************************************




 time elapsed for vibrational analysis    12.35 sec


    ------------------------------------------------------------------------
         total  cpu-time :   2 days 13 hours  5 minutes and 29 seconds
         total wall-time :  2 hours 12 minutes and 47 seconds
    ------------------------------------------------------------------------

   ****  force : all done  ****


    2020-06-24 00:21:23.808 

