64
	Energy:       3.2004541
C         -2.43915       -2.27273       -3.03817
C         -1.48109       -2.04028       -1.86420
C          0.04261       -5.52885       -1.24691
C          0.92314       -5.32923       -0.00824
C         -1.38737       -0.55037       -1.51577
H         -0.47048       -2.41692       -2.13583
H         -1.84730       -2.60193       -0.97682
C         -0.42945       -0.31961       -0.34139
H         -2.39796       -0.17258       -1.24451
H         -1.02153        0.01158       -2.40343
C         -0.33506        1.17021        0.00656
H          0.58097       -0.69735       -0.61254
H         -0.79636       -0.88076        0.54602
C          0.61817        1.40418        1.17484
H         -1.34149        1.55414        0.28245
H          0.03346        1.73760       -0.87586
H          0.26146        0.86542        2.07838
H          0.66621        2.48965        1.40399
H          1.63892        1.04971        0.91737
C         -2.52910       -3.76288       -3.38593
H         -2.07498       -1.71026       -3.92614
H         -3.45042       -1.89729       -2.76633
C         -3.48726       -4.00021       -4.55867
H         -2.89259       -4.32516       -2.49775
H         -1.51754       -4.13608       -3.65855
C         -3.57029       -5.49119       -4.90331
H         -3.12624       -3.43765       -5.44786
H         -4.49996       -3.62894       -4.28640
C         -4.52203       -5.73918       -6.06881
H         -3.93346       -6.05897       -4.01918
H         -2.56125       -5.86506       -5.18119
H         -5.54595       -5.39411       -5.81096
H         -4.55837       -6.82626       -6.29290
H         -4.17157       -5.20029       -6.97469
C          0.97935       -3.85001        0.39189
H          0.50769       -5.92235        0.83623
H          1.95231       -5.69019       -0.22723
C          1.85741       -3.64752        1.63147
H         -0.04974       -3.49014        0.61105
H          1.39497       -3.25713       -0.45254
C          1.91458       -2.17604        2.03138
H          2.88971       -4.00237        1.42019
H          1.44511       -4.23435        2.48117
C         -0.01878       -7.00682       -1.65103
H          0.45761       -4.93509       -2.09104
H         -0.98519       -5.16760       -1.02472
C         -0.90357       -7.19901       -2.88809
H         -0.43391       -7.60120       -0.80734
H          1.00868       -7.37025       -1.87388
C         -0.97292       -8.67469       -3.29780
H         -0.48830       -6.60393       -3.73119
H         -1.92915       -6.83501       -2.66124
C         -1.85913       -8.85953       -4.53548
H         -1.38990       -9.27005       -2.45567
H          0.05273       -9.04205       -3.52278
C         -1.93340      -10.32669       -4.94742
H         -1.44551       -8.27017       -5.38277
H         -2.88731       -8.49762       -4.31697
H         -0.92049      -10.71080       -5.19334
H         -2.57986      -10.42884       -5.84451
H         -2.36607      -10.93681       -4.12609
H          2.34337       -1.56815        1.20654
H          2.55626       -2.05891        2.92980
H          0.89699       -1.80137        2.27117
