
OPTIMIZATION CYCLE 3
Tue Jun 23 12:07:39 PDT 2020
           Doing BLAS/Lapack in the master proc. with 16 CPUs.
           SMPCPUS    set: Shared-memory Parallelization with  28 CPUs.

           SMP Parallelization Reference:
           C. van Wullen, J. Comput. Chem. 32 (2011) 1195--1201

 rdgrad (c-13-32) : TURBOMOLE V7.2 ( 21454 ) 4 Oct 2017 at 12:48:15
 Copyright (C) 2017 TURBOMOLE GmbH, Karlsruhe


    2020-06-23 12:07:40.717 



                                 r d g r a d

                          gradient for ridft program 

                        by K.Eichkorn, O.Treutler, H.Oehm, 
                             M.Haeser and R.Ahlrichs
                  (Chemical Physics Letters 242 (1995) 652-660)
                    parallel version: M.v.Arnim  &  R.Ahlrichs
                            quantum chemistry group
                             university  karlsruhe
                                   germany




                          References             
                                                 
          Density Functional:                              
              O. Treutler and R. Ahlrichs                      
              Efficient Molecular Numerical Integration Schemes
              J. chem. Phys. 102: 346 (1995)                   
          Parallel Version:                                
              Performance of parallel TURBOMOLE for Density    
              Functional Calculations                          
              M. v.Arnim and R. Ahlrichs                      
              J. comp. Chem. 19: 1746 (1998)                   
          RI-J Method:                                     
              Auxiliary Basis Sets to approximate Coulomb      
              Potentials                                       
              Chem. Phys. Lett. 240: 283 (1995)                
              K. Eichkorn, O. Treutler, H. Oehm, M. Haeser     
              and R. Ahlrichs                                  
              Chem. Phys. Lett. 242: 652 (1995)                
                                                           
              Auxiliary Basis Sets for Main Row Atoms and their
              Use to approximate Coulomb Potentials            
              K. Eichkorn, F. Weigend, O. Treutler and         
              R. Ahlrichs                                      
              Theo. Chem. Acc. 97: 119 (1997)                   
                                         



 integral neglect threshold       :  0.34E-11
 integral storage threshold THIZE :  0.10E-04
 integral storage threshold THIME :         5


 DENSITY CONVERGENCE CHECK SWITCHED ON !
 SCF CONVERGENCE IF RMS(delta[D]) <     0.1000000000E-06

 TPSS global hybrid functional
 exchange:    9/10 (LDA+TPSS) + 1/10 HF
 correlation: LDA (PW) + TPSS
 A Hybrid-DFT calculation using the RI-J approximation will be carried out.
  
  
 AUXILIARY BASIS SET information:

 symmetry group of the molecule :   c1 

 the group has the following generators :
   c1(z)

    1 symmetry operations found

 there are 1 real representations :   a   

 maximum number of shells which are related by symmetry :  1


    mo occupation :
   irrep   mo's   occupied
    a      884       82
 
 number of basis functions   :                    884
 number of occupied orbitals :                     82
 

 number of off-diagonal lagrangians expected :  0

 biggest AO integral is expected to be     5.725698708
  
           ------------------
           density functional
           ------------------
 TPSS global hybrid functional
 exchange:    9/10 (LDA+TPSS) + 1/10 HF
 correlation: LDA (PW) + TPSS

 spherical integration : Lebedev's spherical grid
 spherical gridsize    :                     4
    i.e. gridpoints    :                   434
 value for diffuse not defined
 radial integration    : Chebyshev 2nd kind (scaling 3)
 radial gridsize       :                     6
 integration cells     :                    64
 partition function    : becke
 partition sharpness   :                     3
  
  
           ------------------------
             RDGRAD - INFORMATION
           ------------------------
  
 Threshold for integral neglect (rithr1): 1E-10
 Threshold for integral neglect (rithr2): 1E-10
 Contributions to RI integral batches: 
  neglected integral batches:                 34330
  direct contribution:                        44276
     
 ****************************************
 Memory allocated for RDGRAD: 27 MiB
 ****************************************
                                            
     

 nuclear repulsion energy  :   1603.28824938    

  MOs are in ASCII format !


 reading orbital data $scfmo  from file mos
 orbital characterization : scfconv=7
  Deviation of MOs from orthonormality   1.010593830841344E-010
  W A R N I N G 

    ----------------------------------------
     S+T+V CONTRIBUTIONS TO ENERGY GRADIENT 
    ----------------------------------------

 1e-integral 1st. derivatives will be neglected if expon. factor < 0.680404E-14

  _________________________________
 |                                 |
 |         DFTD3 V3.1 Rev 0        |
 | S.Grimme, University Bonn       |
 |            June  2014           |
 |   see standalone version        |
 |       dftd3 -h for options      |
 |_________________________________|
 
 Please cite DFT-D3 work done with this code as:
 S. Grimme, J. Antony, S. Ehrlich and H. Krieg,
 J. Chem. Phys, 132 (2010), 154104.
 If used with BJ-damping cite also
 S. Grimme, S. Ehrlich and L. Goerigk,
 J. Comput. Chem. 32 (2011), 1456-1465
 For DFT-D2 the reference is
 S. Grimme, J. Comput. Chem., 27 (2006), 1787-1799
 
C6 coefficients used:
                     2  C6 for element                      1
Z=  1 CN= 0.912     C6(AA)=    3.03
Z=  1 CN= 0.000     C6(AA)=    7.59
                     5  C6 for element                      6
Z=  6 CN= 0.000     C6(AA)=   49.11
Z=  6 CN= 0.987     C6(AA)=   43.25
Z=  6 CN= 1.998     C6(AA)=   29.36
Z=  6 CN= 2.999     C6(AA)=   25.78
Z=  6 CN= 3.984     C6(AA)=   18.21

#           XYZ [au]              R0(AA) [Ang.]  CN          C6(AA)     C8(AA)   C10(AA) [au]
  1  -2.89509   3.83194  -2.21487   c   0.644  4.051        18.3       528.9     18738.2
  2  -1.08114   4.30646  -0.01947   c   0.644  4.053        18.3       528.8     18736.6
  3   2.04159  -2.68079   1.53995   c   0.644  4.053        18.3       528.9     18736.8
  4   3.81445  -2.25557   3.77823   c   0.644  4.051        18.3       528.9     18738.0
  5  -0.93814   7.07771   0.77611   c   0.644  4.051        18.3       528.9     18738.0
  6   0.81209   3.64574  -0.54201   h   0.417  1.003         3.1        37.3       553.0
  7  -1.65886   3.15709   1.60532   h   0.417  1.002         3.1        37.3       553.0
  8   0.88074   7.54009   2.96976   c   0.644  4.053        18.3       528.9     18736.9
  9  -2.83107   7.73777   1.30457   h   0.417  1.002         3.1        37.3       553.1
 10  -0.35853   8.22794  -0.84844   h   0.417  1.002         3.1        37.3       553.1
 11   1.02775  10.30989   3.77360   c   0.644  4.023        18.3       529.5     18758.1
 12   2.77295   6.87944   2.44189   h   0.417  1.002         3.1        37.3       553.0
 13   0.30467   6.38649   4.59246   h   0.417  1.002         3.1        37.3       553.0
 14   2.85330  10.75096   5.96586   c   0.644  4.012        18.3       529.7     18766.9
 15  -0.86464  10.96498   4.30354   h   0.417  1.002         3.1        37.3       553.1
 16   1.60363  11.45909   2.14914   h   0.417  1.002         3.1        37.3       553.1
 17   2.28796   9.66405   7.63051   h   0.417  0.998         3.1        37.4       553.4
 18   2.92140  12.74382   6.50375   h   0.417  0.997         3.1        37.4       553.5
 19   4.77017  10.16444   5.46225   h   0.417  0.998         3.1        37.4       553.4
 20  -3.02518   1.05602  -2.99593   c   0.644  4.053        18.3       528.8     18736.4
 21  -2.31544   4.97673  -3.84315   h   0.417  1.002         3.1        37.3       553.1
 22  -4.79104   4.48834  -1.69297   h   0.417  1.002         3.1        37.3       553.1
 23  -4.83012   0.55563  -5.19254   c   0.644  4.051        18.3       528.9     18738.1
 24  -3.60140  -0.08571  -1.36515   h   0.417  1.003         3.1        37.3       553.0
 25  -1.12740   0.40111  -3.50885   h   0.417  1.003         3.1        37.3       553.0
 26  -4.93780  -2.22774  -5.95453   c   0.644  4.025        18.3       529.4     18756.4
 27  -4.25441   1.69246  -6.82818   h   0.417  1.002         3.1        37.3       553.1
 28  -6.73274   1.20188  -4.68121   h   0.417  1.002         3.1        37.3       553.1
 29  -6.73701  -2.73766  -8.15192   c   0.644  4.011        18.3       529.7     18767.4
 30  -5.50843  -3.35727  -4.31555   h   0.417  1.002         3.1        37.3       553.1
 31  -3.03374  -2.86731  -6.45530   h   0.417  1.002         3.1        37.3       553.0
 32  -8.66787  -2.17329  -7.67555   h   0.417  0.997         3.1        37.4       553.4
 33  -6.76790  -4.74208  -8.64988   h   0.417  0.997         3.1        37.4       553.5
 34  -6.17205  -1.67613  -9.83348   h   0.417  0.997         3.1        37.4       553.4
 35   3.93140   0.49954   4.63280   c   0.644  4.053        18.3       528.9     18736.8
 36   3.20714  -3.44023   5.36755   h   0.417  1.002         3.1        37.3       553.1
 37   5.72016  -2.89820   3.27477   h   0.417  1.002         3.1        37.3       553.1
 38   5.70456   0.93134   6.87100   c   0.644  4.023        18.3       529.5     18758.0
 39   2.02652   1.14327   5.13505   h   0.417  1.002         3.1        37.3       553.0
 40   4.53453   1.68565   3.04370   h   0.417  1.002         3.1        37.3       553.0
 41   5.80467   3.69116   7.71021   c   0.644  4.013        18.3       529.7     18766.4
 42   7.60788   0.28998   6.36382   h   0.417  1.002         3.1        37.3       553.1
 43   5.09806  -0.25528   8.45698   h   0.417  1.002         3.1        37.3       553.1
 44   1.91602  -5.43438   0.68086   c   0.644  4.051        18.3       528.9     18738.0
 45   2.64824  -1.49560  -0.04814   h   0.417  1.002         3.1        37.3       553.0
 46   0.13831  -2.03315   2.04154   h   0.417  1.003         3.1        37.3       553.0
 47   0.13975  -5.84581  -1.55748   c   0.644  4.052        18.3       528.9     18736.9
 48   1.30510  -6.62012   2.26791   h   0.417  1.002         3.1        37.3       553.1
 49   3.81917  -6.08257   0.17511   h   0.417  1.002         3.1        37.3       553.1
 50   0.00123  -8.59498  -2.42685   c   0.644  4.051        18.3       528.9     18737.8
 51   0.75073  -4.65737  -3.14148   h   0.417  1.002         3.1        37.3       553.0
 52  -1.75981  -5.19138  -1.05148   h   0.417  1.003         3.1        37.3       553.0
 53  -1.77939  -8.99845  -4.66535   c   0.644  4.023        18.3       529.4     18757.5
 54  -0.61181  -9.78509  -0.84348   h   0.417  1.002         3.1        37.3       553.1
 55   1.90094  -9.24984  -2.93822   h   0.417  1.002         3.1        37.3       553.1
 56  -1.90327 -11.75143  -5.52350   c   0.644  4.012        18.3       529.7     18767.3
 57  -1.16751  -7.80604  -6.24437   h   0.417  1.002         3.1        37.3       553.1
 58  -3.67620  -8.34503  -4.15208   h   0.417  1.002         3.1        37.3       553.1
 59  -0.03863 -12.43054  -6.10274   h   0.417  0.997         3.1        37.4       553.4
 60  -3.18771 -11.98786  -7.12353   h   0.417  0.997         3.1        37.4       553.5
 61  -2.56606 -12.97383  -3.99375   h   0.417  0.997         3.1        37.4       553.4
 62   6.45729   4.90916   6.17360   h   0.417  0.998         3.1        37.4       553.4
 63   7.08400   3.95039   9.31068   h   0.417  0.997         3.1        37.4       553.5
 64   3.93399   4.36016   8.27896   h   0.417  0.998         3.1        37.4       553.4

molecular C6(AA) [au] =     26428.58

           DFT-D V3(BJ)
 DF tpssh                                             
 parameters
 s6       :    1.0000
 s8       :    2.2382
 a1       :    0.4529
 a2       :    4.6550
 k1-k3    :   16.0000    1.3333   -4.0000
 
 Edisp /kcal,au:   -43.6809 -0.06960997

 E6    /kcal :   -22.8659
 E8    /kcal :   -20.8151
 % E8        : 47.65
 
 doing analytical gradient O(N^2) ...
 
 |G|=  2.210294381749830E-002

 setting up bound for integral derivative estimation

 increment for numerical differentiation : 0.00050000

 biggest AO integral is expected to be     5.725698708
 biggest cartesian 1st derivative AO integral is expected to be    10.738636663

 biggest 1-particle AO density matrix element is expected to be    0.8245930682

 setting up bound for integral derivative estimation

 increment for numerical differentiation : 0.00050000

 biggest AO integral is expected to be     5.725698708
 biggest cartesian 1st derivative AO integral is expected to be    10.738636663

 2e-integral 1st. derivatives will be neglected if expon. factor < 0.100000E-06
 outer boundary for 2e-integral derivative neglection is 0.245115E-07

          Overall gridpoints after grid construction =        555441

 Integrated ground state density     :   163.9998927788590    


          ------------------------------------------------
           cartesian gradient of the energy (hartree/bohr)
          ------------------------------------------------

  ATOM      1 c           2 c           3 c           4 c           5 c 
dE/dx  0.2676559D-05 -0.3392551D-05  0.4493547D-05  0.2621342D-05 -0.6657162D-06
dE/dy  0.4321516D-05 -0.1015672D-05  0.3233782D-05 -0.2945029D-05  0.5431635D-05
dE/dz  0.1501628D-05  0.4622112D-05  0.7748455D-06  0.5093306D-05  0.7548743D-05

  ATOM      6 h           7 h           8 c           9 h          10 h 
dE/dx -0.3168264D-05  0.1582252D-05 -0.9346763D-05 -0.6278668D-07 -0.1010141D-05
dE/dy  0.1181565D-06  0.9636376D-06 -0.1178129D-04  0.7283187D-06 -0.4512815D-05
dE/dz -0.6705219D-05 -0.6244909D-05 -0.9955730D-05 -0.1106787D-06 -0.1690477D-05

  ATOM     11 c          12 h          13 h          14 c          15 h 
dE/dx  0.1298834D-05  0.4406778D-05  0.5665773D-05 -0.3586963D-05 -0.2150742D-05
dE/dy  0.5281736D-05  0.5441131D-05  0.1168241D-05 -0.1705998D-05  0.4509111D-05
dE/dz  0.9472559D-05 -0.3041111D-05  0.8471282D-06 -0.4456299D-05 -0.1861280D-05

  ATOM     16 h          17 h          18 h          19 h          20 c 
dE/dx -0.3454245D-06  0.6882480D-05 -0.3113419D-05 -0.9141784D-06 -0.9543866D-05
dE/dy -0.3403527D-05  0.1401372D-05 -0.2784659D-06  0.3978340D-06 -0.1363628D-05
dE/dz -0.3565785D-05  0.4644361D-05  0.2828000D-05 -0.6158069D-05 -0.1775656D-05

  ATOM     21 h          22 h          23 c          24 h          25 h 
dE/dx -0.2236361D-05  0.4254647D-06  0.5954528D-05  0.1549520D-05 -0.5993576D-06
dE/dy -0.5398889D-06 -0.1742217D-05  0.8061782D-05  0.2010336D-05 -0.4075358D-05
dE/dz  0.1674065D-05  0.3667003D-06  0.8164436D-05  0.7220965D-07 -0.3065146D-05

  ATOM     26 c          27 h          28 h          29 c          30 h 
dE/dx -0.2275127D-05 -0.3421483D-05 -0.1140748D-05 -0.7179849D-05 -0.2392503D-05
dE/dy -0.7975367D-05 -0.2314109D-05 -0.1109789D-05 -0.3421062D-05  0.2033967D-05
dE/dz  0.3289410D-05 -0.3007952D-05 -0.6717358D-06 -0.8586876D-05  0.2522887D-05

  ATOM     31 h          32 h          33 h          34 h          35 c 
dE/dx  0.1976121D-05  0.1705508D-05  0.6143080D-06  0.1494272D-05 -0.1514476D-05
dE/dy  0.9696500D-06  0.5426264D-06  0.3797928D-06 -0.9464420D-06 -0.3574989D-05
dE/dz -0.1060895D-05  0.4510485D-05  0.3787506D-06  0.1945724D-05 -0.8821687D-05

  ATOM     36 h          37 h          38 c          39 h          40 h 
dE/dx -0.2126880D-05 -0.5200795D-06  0.4235685D-05 -0.5300943D-06 -0.9710611D-06
dE/dy  0.1710855D-05  0.2487411D-05  0.1425429D-04 -0.2000505D-05  0.2004650D-05
dE/dz -0.4855235D-05 -0.2705073D-05  0.6848629D-05  0.5647617D-05  0.2381168D-05

  ATOM     41 c          42 h          43 h          44 c          45 h 
dE/dx -0.4535077D-05  0.1262463D-05 -0.5659546D-06 -0.4144316D-05 -0.2349174D-05
dE/dy -0.5822596D-05 -0.2919834D-05 -0.3726285D-05 -0.9477693D-05  0.1421161D-05
dE/dz  0.2379899D-05 -0.8257277D-06 -0.2964507D-05 -0.4758763D-05  0.5337164D-05

  ATOM     46 h          47 c          48 h          49 h          50 c 
dE/dx  0.2200208D-05  0.5580045D-05  0.1690295D-05  0.3916243D-06 -0.7812318D-05
dE/dy -0.2844167D-05  0.2915133D-05  0.3920994D-05  0.3963017D-05 -0.6396820D-05
dE/dz  0.8085923D-06  0.3867098D-05 -0.5651834D-06  0.1292984D-05 -0.1093380D-04

  ATOM     51 h          52 h          53 c          54 h          55 h 
dE/dx  0.4847148D-06 -0.6641020D-06  0.3812281D-05  0.2431317D-05  0.3342490D-05
dE/dy  0.4521374D-05  0.2334686D-06  0.5421749D-05  0.1374187D-05  0.9894495D-06
dE/dz  0.1348774D-05 -0.1480073D-05  0.1302738D-04  0.4298608D-05  0.8727802D-06

  ATOM     56 c          57 h          58 h          59 h          60 h 
dE/dx  0.1893407D-05  0.3147146D-05 -0.4466665D-05 -0.2192262D-06 -0.7228942D-06
dE/dy -0.5854409D-05  0.3925555D-05 -0.3548107D-05 -0.1568763D-06  0.3256910D-05
dE/dz -0.1168105D-04 -0.4455927D-06 -0.7732778D-05  0.2176543D-05  0.2863664D-05

  ATOM     61 h          62 h          63 h          64 h 
dE/dx  0.1371905D-05  0.1001446D-06  0.5616385D-05 -0.5360945D-05
dE/dy -0.3515525D-06  0.6456435D-05  0.3739604D-05 -0.4307499D-05
dE/dz  0.2291112D-05  0.3499750D-05 -0.4819699D-05 -0.4282028D-05
 
 resulting FORCE  (fx,fy,fz) = (-.121D-04,0.948D-05,-.963D-05)
 resulting MOMENT (mx,my,mz) = (-.964D-04,0.132D-03,0.248D-03)


 exx =       0.000072 eyy =       0.000029 ezz =      -0.000081
 eyz =       0.000030 exz =      -0.000015 exy =      -0.000032


 **********************************************************************
  |maximum component of gradient| : 0.14254294E-04  (atom 38 c )       
   gradient norm                  : 0.59424449E-04
 **********************************************************************
   ***  cartesian gradients written onto <gradient>  ***


     --- calculation of the energy gradient finished ---



    ------------------------------------------------------------------------
         total  cpu-time :  1 hours 15 minutes and 57 seconds
         total wall-time : 14 minutes and 15 seconds
    ------------------------------------------------------------------------

   ****  rdgrad : all done  ****


    2020-06-23 12:21:55.378 

fine, there is no data group "$actual step"
next step = relax

 statpt (c-13-32) : TURBOMOLE V7.2 ( 21454 ) 2 Oct 2017 at 16:43:05
 Copyright (C) 2017 TURBOMOLE GmbH, Karlsruhe


    2020-06-23 12:21:55.851 



                           this is S T A T P T   


                     hessian and coordinate update for
                          stationary point search 

                     by barbara unterreiner, marek sierka,
                           and reinhart ahlrichs

                          quantum chemistry group
                          universitaet  karlsruhe
                                  germany




              +--------------------------------------------------+
              | Atomic coordinate, charge and isotop information |
              +--------------------------------------------------+

                    atomic coordinates            atom    charge  isotop
         -2.89509465    3.83193731   -2.21486915    c      6.000     0
         -1.08114154    4.30646105   -0.01947227    c      6.000     0
          2.04158756   -2.68079057    1.53994516    c      6.000     0
          3.81444791   -2.25557356    3.77823266    c      6.000     0
         -0.93814071    7.07771370    0.77610907    c      6.000     0
          0.81209000    3.64573687   -0.54201097    h      1.000     0
         -1.65886001    3.15708989    1.60532187    h      1.000     0
          0.88074311    7.54009112    2.96976051    c      6.000     0
         -2.83107115    7.73777051    1.30457182    h      1.000     0
         -0.35852845    8.22794030   -0.84843971    h      1.000     0
          1.02775089   10.30989456    3.77360321    c      6.000     0
          2.77295470    6.87943973    2.44189409    h      1.000     0
          0.30467068    6.38649337    4.59245851    h      1.000     0
          2.85329548   10.75096453    5.96585605    c      6.000     0
         -0.86464402   10.96498448    4.30353920    h      1.000     0
          1.60362547   11.45908855    2.14913788    h      1.000     0
          2.28796208    9.66404900    7.63050878    h      1.000     0
          2.92139906   12.74382192    6.50374579    h      1.000     0
          4.77017202   10.16444423    5.46224942    h      1.000     0
         -3.02518469    1.05602376   -2.99593460    c      6.000     0
         -2.31543804    4.97672536   -3.84315433    h      1.000     0
         -4.79104043    4.48833596   -1.69297466    h      1.000     0
         -4.83012426    0.55563482   -5.19254335    c      6.000     0
         -3.60140482   -0.08570875   -1.36515082    h      1.000     0
         -1.12740335    0.40111215   -3.50885313    h      1.000     0
         -4.93779754   -2.22774364   -5.95453145    c      6.000     0
         -4.25441345    1.69246271   -6.82817895    h      1.000     0
         -6.73273665    1.20188427   -4.68120679    h      1.000     0
         -6.73700884   -2.73766122   -8.15192026    c      6.000     0
         -5.50842686   -3.35726995   -4.31555456    h      1.000     0
         -3.03374349   -2.86731465   -6.45530460    h      1.000     0
         -8.66786617   -2.17329096   -7.67554986    h      1.000     0
         -6.76789617   -4.74207657   -8.64988330    h      1.000     0
         -6.17204681   -1.67613271   -9.83347854    h      1.000     0
          3.93140109    0.49954115    4.63280197    c      6.000     0
          3.20713750   -3.44023470    5.36754921    h      1.000     0
          5.72016284   -2.89819951    3.27476572    h      1.000     0
          5.70455660    0.93133762    6.87099910    c      6.000     0
          2.02651822    1.14327373    5.13505095    h      1.000     0
          4.53453134    1.68565150    3.04369673    h      1.000     0
          5.80467411    3.69116166    7.71021454    c      6.000     0
          7.60787828    0.28998296    6.36381651    h      1.000     0
          5.09806094   -0.25528214    8.45697553    h      1.000     0
          1.91602190   -5.43438157    0.68086119    c      6.000     0
          2.64824367   -1.49560071   -0.04813982    h      1.000     0
          0.13831344   -2.03315318    2.04153532    h      1.000     0
          0.13975411   -5.84581246   -1.55748338    c      6.000     0
          1.30510095   -6.62011932    2.26791049    h      1.000     0
          3.81917206   -6.08257324    0.17511087    h      1.000     0
          0.00122959   -8.59498018   -2.42685168    c      6.000     0
          0.75072816   -4.65736541   -3.14147782    h      1.000     0
         -1.75981105   -5.19137981   -1.05147722    h      1.000     0
         -1.77938868   -8.99845387   -4.66534738    c      6.000     0
         -0.61180882   -9.78509453   -0.84348334    h      1.000     0
          1.90094434   -9.24983939   -2.93822170    h      1.000     0
         -1.90327457  -11.75142647   -5.52350316    c      6.000     0
         -1.16751296   -7.80603807   -6.24437367    h      1.000     0
         -3.67620378   -8.34503136   -4.15207777    h      1.000     0
         -0.03862570  -12.43053532   -6.10274187    h      1.000     0
         -3.18771268  -11.98786472   -7.12352828    h      1.000     0
         -2.56606186  -12.97383058   -3.99374574    h      1.000     0
          6.45729050    4.90915870    6.17360330    h      1.000     0
          7.08400009    3.95039105    9.31068349    h      1.000     0
          3.93399353    4.36016059    8.27895519    h      1.000     0
 
       center of nuclear mass  :   -0.00045212    0.00092556   -0.00015749
       center of nuclear charge:   -0.00035650    0.00072981   -0.00012418
  Keyword $statpt not found - using default options
 
        ***************  Stationary point options ******************
        ************************************************************
           Maximum allowed trust radius:           3.000000E-01
           Minimum allowed trust radius:           1.000000E-03
           Initial trust radius:                   1.500000E-01
           GDIIS used if gradient norm <           1.000000E-02
           Number of previous steps for GDIIS:       5
           Hessian update method:                  BFGS
                        *** Convergence criteria ***                
           Threshold for energy change:            1.000000E-06
           Threshold for max displacement element: 1.000000E-03
           Threshold for max gradient element :    1.000000E-03
           Threshold for RMS of displacement:      5.000000E-04
           Threshold for RMS of gradient:          5.000000E-04
        ************************************************************
 

 keyword $statp missing in file <control>

  Keyword $statpt not found - using default options
     Number of symmetry restricted degrees of freedom:   192
     Constituted by:     3 translational degrees of freedom
                         3 rotational degrees of freedom
                     186 internal degrees of freedom

  *************************************************************************
   ATOM                      CARTESIAN COORDINATES
    1 c      -2.89509465460578      3.83193731377605     -2.21486914969582
    2 c      -1.08114154467230      4.30646104959592     -0.01947227058119
    3 c       2.04158756170043     -2.68079057291995      1.53994516379556
    4 c       3.81444791488469     -2.25557356120737      3.77823265636722
    5 c      -0.93814070827285      7.07771370365665      0.77610906946916
    6 h       0.81208999599056      3.64573686578331     -0.54201097240768
    7 h      -1.65886001427320      3.15708988955318      1.60532186739988
    8 c       0.88074311475104      7.54009112279456      2.96976051183652
    9 h      -2.83107115348952      7.73777051017531      1.30457182030715
   10 h      -0.35852844889316      8.22794030054270     -0.84843970544301
   11 c       1.02775088750711     10.30989455733073      3.77360320901416
   12 h       2.77295470370160      6.87943972603887      2.44189409296557
   13 h       0.30467067586471      6.38649336990828      4.59245851355540
   14 c       2.85329547987176     10.75096452611233      5.96585605488502
   15 h      -0.86464401777100     10.96498448131660      4.30353919507032
   16 h       1.60362547304038     11.45908855381540      2.14913788453772
   17 h       2.28796207742516      9.66404899648163      7.63050878221023
   18 h       2.92139905878979     12.74382192367985      6.50374579093224
   19 h       4.77017202353008     10.16444423387968      5.46224942341584
   20 c      -3.02518468744857      1.05602376025658     -2.99593460107949
   21 h      -2.31543804038218      4.97672536117209     -3.84315433314481
   22 h      -4.79104043372024      4.48833596223970     -1.69297466367345
   23 c      -4.83012425529866      0.55563482451030     -5.19254335086352
   24 h      -3.60140481553198     -0.08570875058982     -1.36515082464967
   25 h      -1.12740334708501      0.40111215235974     -3.50885312582872
   26 c      -4.93779753862983     -2.22774364042806     -5.95453144562101
   27 h      -4.25441344943025      1.69246270992038     -6.82817895026697
   28 h      -6.73273664577625      1.20188426818197     -4.68120679276005
   29 c      -6.73700884236700     -2.73766122425678     -8.15192026036354
   30 h      -5.50842685886326     -3.35726994645424     -4.31555455705886
   31 h      -3.03374349206290     -2.86731465165458     -6.45530460323388
   32 h      -8.66786617193753     -2.17329095999283     -7.67554986135750
   33 h      -6.76789617292971     -4.74207656513816     -8.64988330119192
   34 h      -6.17204680724329     -1.67613270625998     -9.83347854132899
   35 c       3.93140108529174      0.49954115416544      4.63280196504253
   36 h       3.20713749700003     -3.44023469671765      5.36754921096415
   37 h       5.72016283572252     -2.89819951321192      3.27476571589904
   38 c       5.70455660409226      0.93133761689229      6.87099909918304
   39 h       2.02651822343488      1.14327373404028      5.13505094520971
   40 h       4.53453133939990      1.68565149835266      3.04369673268885
   41 c       5.80467411012319      3.69116166089410      7.71021454338370
   42 h       7.60787827980264      0.28998295900461      6.36381651222324
   43 h       5.09806093769912     -0.25528213791385      8.45697552510455
   44 c       1.91602190144853     -5.43438157489383      0.68086118578508
   45 h       2.64824366684427     -1.49560071197209     -0.04813981844492
   46 h       0.13831343801371     -2.03315318040615      2.04153531584082
   47 c       0.13975411325739     -5.84581246454773     -1.55748337986689
   48 h       1.30510094790011     -6.62011931903611      2.26791049290002
   49 h       3.81917205827499     -6.08257323786664      0.17511086675774
   50 c       0.00122959290316     -8.59498017737601     -2.42685167700001
   51 h       0.75072815655915     -4.65736541408406     -3.14147781770288
   52 h      -1.75981105233415     -5.19137980694269     -1.05147722312519
   53 c      -1.77938867935548     -8.99845387494000     -4.66534737731322
   54 h      -0.61180882094646     -9.78509452669455     -0.84348333846507
   55 h       1.90094433514414     -9.24983938570003     -2.93822169658183
   56 c      -1.90327456946189    -11.75142646959762     -5.52350316018942
   57 h      -1.16751295549448     -7.80603806517983     -6.24437366871514
   58 h      -3.67620378278212     -8.34503136061064     -4.15207777481933
   59 h      -0.03862570347866    -12.43053531877919     -6.10274186936432
   60 h      -3.18771268427657    -11.98786472135562     -7.12352828101748
   61 h      -2.56606186361969    -12.97383058313625     -3.99374573741869
   62 h       6.45729049813643      4.90915869607468      6.17360330177774
   63 h       7.08400009434538      3.95039105032840      9.31068349397384
   64 h       3.93399352998323      4.36016058702982      8.27895518807843
  *************************************************************************
   ATOM                      CARTESIAN GRADIENTS  
    1 c       0.00000267655908      0.00000432151643      0.00000150162766
    2 c      -0.00000339255059     -0.00000101567214      0.00000462211199
    3 c       0.00000449354719      0.00000323378213      0.00000077484555
    4 c       0.00000262134194     -0.00000294502899      0.00000509330618
    5 c      -0.00000066571621      0.00000543163485      0.00000754874280
    6 h      -0.00000316826371      0.00000011815653     -0.00000670521879
    7 h       0.00000158225174      0.00000096363759     -0.00000624490860
    8 c      -0.00000934676263     -0.00001178128933     -0.00000995573027
    9 h      -0.00000006278668      0.00000072831875     -0.00000011067874
   10 h      -0.00000101014063     -0.00000451281473     -0.00000169047671
   11 c       0.00000129883390      0.00000528173631      0.00000947255929
   12 h       0.00000440677798      0.00000544113129     -0.00000304111107
   13 h       0.00000566577275      0.00000116824126      0.00000084712817
   14 c      -0.00000358696308     -0.00000170599833     -0.00000445629910
   15 h      -0.00000215074247      0.00000450911091     -0.00000186127962
   16 h      -0.00000034542446     -0.00000340352686     -0.00000356578461
   17 h       0.00000688248039      0.00000140137198      0.00000464436093
   18 h      -0.00000311341861     -0.00000027846592      0.00000282800044
   19 h      -0.00000091417840      0.00000039783397     -0.00000615806937
   20 c      -0.00000954386647     -0.00000136362777     -0.00000177565645
   21 h      -0.00000223636053     -0.00000053988892      0.00000167406505
   22 h       0.00000042546468     -0.00000174221683      0.00000036670033
   23 c       0.00000595452797      0.00000806178231      0.00000816443598
   24 h       0.00000154951965      0.00000201033601      0.00000007220965
   25 h      -0.00000059935764     -0.00000407535840     -0.00000306514569
   26 c      -0.00000227512727     -0.00000797536737      0.00000328940952
   27 h      -0.00000342148286     -0.00000231410904     -0.00000300795187
   28 h      -0.00000114074776     -0.00000110978890     -0.00000067173578
   29 c      -0.00000717984914     -0.00000342106199     -0.00000858687601
   30 h      -0.00000239250313      0.00000203396704      0.00000252288660
   31 h       0.00000197612055      0.00000096964997     -0.00000106089504
   32 h       0.00000170550761      0.00000054262638      0.00000451048510
   33 h       0.00000061430805      0.00000037979279      0.00000037875063
   34 h       0.00000149427195     -0.00000094644197      0.00000194572358
   35 c      -0.00000151447639     -0.00000357498936     -0.00000882168677
   36 h      -0.00000212688043      0.00000171085457     -0.00000485523511
   37 h      -0.00000052007946      0.00000248741105     -0.00000270507338
   38 c       0.00000423568452      0.00001425429393      0.00000684862945
   39 h      -0.00000053009426     -0.00000200050517      0.00000564761668
   40 h      -0.00000097106109      0.00000200464964      0.00000238116827
   41 c      -0.00000453507700     -0.00000582259592      0.00000237989947
   42 h       0.00000126246338     -0.00000291983427     -0.00000082572772
   43 h      -0.00000056595461     -0.00000372628522     -0.00000296450655
   44 c      -0.00000414431637     -0.00000947769254     -0.00000475876289
   45 h      -0.00000234917433      0.00000142116097      0.00000533716441
   46 h       0.00000220020792     -0.00000284416725      0.00000080859226
   47 c       0.00000558004506      0.00000291513334      0.00000386709795
   48 h       0.00000169029496      0.00000392099381     -0.00000056518344
   49 h       0.00000039162433      0.00000396301725      0.00000129298363
   50 c      -0.00000781231835     -0.00000639681991     -0.00001093379947
   51 h       0.00000048471475      0.00000452137380      0.00000134877367
   52 h      -0.00000066410199      0.00000023346860     -0.00000148007307
   53 c       0.00000381228142      0.00000542174941      0.00001302737989
   54 h       0.00000243131727      0.00000137418686      0.00000429860828
   55 h       0.00000334249042      0.00000098944953      0.00000087278017
   56 c       0.00000189340704     -0.00000585440871     -0.00001168104927
   57 h       0.00000314714614      0.00000392555458     -0.00000044559269
   58 h      -0.00000446666459     -0.00000354810703     -0.00000773277837
   59 h      -0.00000021922618     -0.00000015687632      0.00000217654334
   60 h      -0.00000072289422      0.00000325690959      0.00000286366375
   61 h       0.00000137190499     -0.00000035155248      0.00000229111237
   62 h       0.00000010014462      0.00000645643531      0.00000349974998
   63 h       0.00000561638488      0.00000373960446     -0.00000481969862
   64 h      -0.00000536094533     -0.00000430749923     -0.00000428202814
  *************************************************************************

  norm of actual CARTESIAN gradient:  5.94244E-05
  norm of actual INTERNAL  gradient:  6.61935E-05

  ENERGY =    -789.0836054893 a.u.; # of cycle =    3

  Approximate Hessian read from $hessapprox data section

  Hessian updated according to BFGS formula
  Number of zero Hessian eigenvalues:   0
  Number of structures for GDIIS interpolation:    3
  GDIIS step:     0.000795

  Transforming internal coordinate displacements to Cartesian space
      Iteration   1 residual norm     7.949343E-04
      Iteration   2 residual norm     5.899749E-07
      Iteration   3 residual norm     2.140643E-14
      Transformation converged
      Residual norm:    2.140643E-14 after    3 iterations

      ****************************************************************** 
                          CONVERGENCE INFORMATION

                               Converged?     Value      Criterion
             Energy change         yes      0.0000002   0.0000010
             RMS of displacement   yes      0.0000583   0.0005000
             RMS of gradient       yes      0.0000049   0.0005000
             MAX displacement      yes      0.0004046   0.0010000
             MAX gradient          yes      0.0000249   0.0010000
      ****************************************************************** 


    ------------------------------------------------------------------------
         total  cpu-time :   6.92 seconds
         total wall-time :   6.93 seconds
    ------------------------------------------------------------------------

   ****  statpt : all done  ****


    2020-06-23 12:22:02.665 

fine, there is no data group "$actual step"
next step = ridft
           Doing BLAS/Lapack in the master proc. with 16 CPUs.
           SMPCPUS    set: Shared-memory Parallelization with  28 CPUs.

           SMP Parallelization Reference:
           C. van Wullen, J. Comput. Chem. 32 (2011) 1195--1201

 ridft (c-13-32) : TURBOMOLE V7.2 ( 21454 ) 4 Oct 2017 at 12:48:15
 Copyright (C) 2017 TURBOMOLE GmbH, Karlsruhe


    2020-06-23 12:22:04.573 



                                  r i d f t

                        DFT program with RI approximation 
                                for coulomb part 




                                                 
                                 References:     
                                                 
          TURBOMOLE:                             
              R. Ahlrichs, M. Baer, M. Haeser, H. Horn, and
              C. Koelmel
              Electronic structure calculations on workstation
              computers: the program system TURBOMOLE
              Chem. Phys. Lett. 162: 165 (1989)
          Density Functional:                              
              O. Treutler and R. Ahlrichs                      
              Efficient Molecular Numerical Integration Schemes
              J. Chem. Phys. 102: 346 (1995)                   
          Parallel Version:                                
              Performance of parallel TURBOMOLE for Density    
              Functional Calculations                          
              M. v. Arnim and R. Ahlrichs                      
              J. Comp. Chem. 19: 1746 (1998)                   
          RI-J Method:                                     
              Auxiliary Basis Sets to approximate Coulomb      
              Potentials                                       
              Chem. Phys. Lett. 240: 283 (1995)                
              K. Eichkorn, O. Treutler, H. Oehm, M. Haeser     
              and R. Ahlrichs                                  
              Chem. Phys. Lett. 242: 652 (1995)                
                                                           
              Auxiliary Basis Sets for Main Row Atoms and their
              Use to approximate Coulomb Potentials            
              K. Eichkorn, F. Weigend, O. Treutler and         
              R. Ahlrichs                                      
              Theo. Chem. Acc. 97: 119 (1997)                   
                                                           
              Accurate Coulomb-fitting basis sets for H to Rn 
              F. Weigend                                        
              Phys. Chem. Chem. Phys. 8: 1057 (2006)            
                                                           
          Multipole accelerated RI-J (MARI-J):             
              Fast evaluation of the Coulomb potential for     
              electron densities using multipole accelerated   
              resolution of identity approximation             
              M. Sierka, A. Hogekamp and R. Ahlrichs           
              J. Chem. Phys. 118: 9136 (2003)                  
          RI-JK Method:                                     
              A fully direct RI-HF algorithm: Implementation,
              optimised auxiliary basis sets, demonstration of
              accuracy and efficiency                         
              F. Weigend                                      
              Phys. Chem. Chem. Phys. 4: 4285 (2002)           
          Two-component HF and DFT with spin-orbit coupling:  
              Self-consistent treatment of spin-orbit         
              interactions with efficient Hartree-Fock and    
              density functional methods                      
              M. K. Armbruster, F. Weigend, C. van Wüllen and 
              W. Klopper                                      
              Phys. Chem. Chem. Phys. 10: 1748 (2008)         
          Relativistic all-electron 2c calculations           
              An efficient implementation of two-component    
              relativistic exact-decoupling methods for large 
              molecules                                       
              D. Peng, N. Middendorf, F. Weigend, M. Reiher   
              J. Chem. Phys. 138, 184105 (2013)               
                                         




              +--------------------------------------------------+
              |      general information about current run       |
              +--------------------------------------------------+

 

 DENSITY CONVERGENCE CHECK SWITCHED ON !
 SCF CONVERGENCE IF RMS(delta[D]) <     0.1000000000E-06

 TPSS global hybrid functional
 exchange:    9/10 (LDA+TPSS) + 1/10 HF
 correlation: LDA (PW) + TPSS
 A Hybrid-DFT calculation using the RI-J approximation will be carried out.
 Allocatable memory for RI due to $ricore (MB):                 55000


              +--------------------------------------------------+
              | Atomic coordinate, charge and isotop information |
              +--------------------------------------------------+

                    atomic coordinates            atom    charge  isotop
         -2.89433962    3.83210185   -2.21550462    c      6.000     0
         -1.08061852    4.30658338   -0.01990148    c      6.000     0
          2.04232056   -2.68059785    1.53924862    c      6.000     0
          3.81504233   -2.25540759    3.77765437    c      6.000     0
         -0.93786595    7.07778429    0.77590162    c      6.000     0
          0.81269937    3.64597904   -0.54227764    h      1.000     0
         -1.65845386    3.15708530    1.60476775    h      1.000     0
          0.88063510    7.54007283    2.96990088    c      6.000     0
         -2.83091597    7.73768411    1.30413193    h      1.000     0
         -0.35807011    8.22820206   -0.84844813    h      1.000     0
          1.02731475   10.30980031    3.77403082    c      6.000     0
          2.77295744    6.87956044    2.44226798    h      1.000     0
          0.30435660    6.38627676    4.59238479    h      1.000     0
          2.85258086   10.75082438    5.96652946    c      6.000     0
         -0.86519913   10.96460656    4.30388233    h      1.000     0
          1.60320530   11.45926161    2.14976161    h      1.000     0
          2.28685141    9.66410680    7.63117362    h      1.000     0
          2.92086705   12.74372089    6.50425013    h      1.000     0
          4.76946126   10.16402325    5.46326336    h      1.000     0
         -3.02450569    1.05617434   -2.99649799    c      6.000     0
         -2.31442913    4.97681223   -3.84375684    h      1.000     0
         -4.79030770    4.48862661   -1.69384501    h      1.000     0
         -4.82961836    0.55575406   -5.19296720    c      6.000     0
         -3.60066824   -0.08549649   -1.36564961    h      1.000     0
         -1.12677364    0.40120833   -3.50951484    h      1.000     0
         -4.93777215   -2.22771464   -5.95452825    c      6.000     0
         -4.25379247    1.69227043   -6.82877728    h      1.000     0
         -6.73210232    1.20237961   -4.68162694    h      1.000     0
         -6.73772735   -2.73780025   -8.15125929    c      6.000     0
         -5.50799183   -3.35692978   -4.31519159    h      1.000     0
         -3.03394673   -2.86757640   -6.45579095    h      1.000     0
         -8.66839598   -2.17321684   -7.67437123    h      1.000     0
         -6.76893609   -4.74228731   -8.64891901    h      1.000     0
         -6.17323224   -1.67656500   -9.83316098    h      1.000     0
          3.93172351    0.49964504    4.63246912    c      6.000     0
          3.20775566   -3.44024018    5.36685886    h      1.000     0
          5.72083584   -2.89785232    3.27425173    h      1.000     0
          5.70429676    0.93128575    6.87114651    c      6.000     0
          2.02669480    1.14328416    5.13427938    h      1.000     0
          4.53522446    1.68590381    3.04361499    h      1.000     0
          5.80395979    3.69100496    7.71078842    c      6.000     0
          7.60780359    0.29019932    6.36432945    h      1.000     0
          5.09754051   -0.25559618    8.45682513    h      1.000     0
          1.91671209   -5.43419646    0.68020799    c      6.000     0
          2.64912352   -1.49544023   -0.04880853    h      1.000     0
          0.13903752   -2.03289373    2.04072298    h      1.000     0
          0.14007260   -5.84573597   -1.55783024    c      6.000     0
          1.30608125   -6.61994203    2.26736775    h      1.000     0
          3.81979284   -6.08235646    0.17415193    h      1.000     0
          0.00134473   -8.59495952   -2.42696729    c      6.000     0
          0.75081623   -4.65741071   -3.14200369    h      1.000     0
         -1.75939317   -5.19123406   -1.05154947    h      1.000     0
         -1.77995851   -8.99864475   -4.66489148    c      6.000     0
         -0.61121014   -9.78498166   -0.84334535    h      1.000     0
          1.90090857   -9.24983400   -2.93886784    h      1.000     0
         -1.90415670  -11.75171513   -5.52266370    c      6.000     0
         -1.16853988   -7.80642421   -6.24423925    h      1.000     0
         -3.67659182   -8.34511066   -4.15110249    h      1.000     0
         -0.03968176  -12.43093783   -6.10233677    h      1.000     0
         -3.18902588  -11.98833571   -7.12231918    h      1.000     0
         -2.56655653  -12.97391744   -3.99258124    h      1.000     0
          6.45694990    4.90926848    6.17455199    h      1.000     0
          7.08275216    3.95007726    9.31170784    h      1.000     0
          3.93305913    4.35978313    8.27907202    h      1.000     0
 
       center of nuclear mass  :   -0.00040830    0.00093799   -0.00019850
       center of nuclear charge:   -0.00032194    0.00073961   -0.00015652

              +--------------------------------------------------+
              |               basis set information              |
              +--------------------------------------------------+

              we will work with the 1s 3p 5d 7f 9g ... basis set
              ...i.e. with spherical basis functions...

   type   atoms  prim   cont   basis
   ---------------------------------------------------------------------------
    c       20     46     31   def2-TZVP   [5s3p2d1f|11s6p2d1f]
    h       44      8      6   def2-TZVP   [3s1p|5s1p]
   ---------------------------------------------------------------------------
   total:   64   1272    884
   ---------------------------------------------------------------------------

   total number of primitive shells          :   26
   total number of contracted shells         :  396
   total number of cartesian basis functions :  984
   total number of SCF-basis functions       :  884


 integral neglect threshold       :  0.34E-11
 integral storage threshold THIZE :  0.10E-04
 integral storage threshold THIME :         5

 RI-J AUXILIARY BASIS SET information:

              we will work with the 1s 3p 5d 7f 9g ... basis set
              ...i.e. with spherical basis functions...

   type   atoms  prim   cont   basis
   ---------------------------------------------------------------------------
    c       20     70     49   def2-TZVP   [6s4p3d1f1g|12s5p4d2f1g]
    h       44     16     11   def2-TZVP   [3s1p1d|5s2p1d]
   ---------------------------------------------------------------------------
   total:   64   2104   1464
   ---------------------------------------------------------------------------

   total number of primitive shells          :   32
   total number of contracted shells         :  520
   total number of cartesian basis functions : 1748
   total number of SCF-basis functions       : 1464


 symmetry group of the molecule :   c1 

 the group has the following generators :
   c1(z)

    1 symmetry operations found

 there are 1 real representations :   a   

 maximum number of shells which are related by symmetry :  1


    mo occupation :
   irrep   mo's   occupied
    a      884       82
 
 number of basis functions   :                    884
 number of occupied orbitals :                     82
 
  
           ------------------
           density functional
           ------------------
 TPSS global hybrid functional
 exchange:    9/10 (LDA+TPSS) + 1/10 HF
 correlation: LDA (PW) + TPSS

 spherical integration : Lebedev's spherical grid
 spherical gridsize    :                     4
    i.e. gridpoints    :                   434
 value for diffuse not defined
 radial integration    : Chebyshev 2nd kind (scaling 3)
 radial gridsize       :                     6
 integration cells     :                    64
 partition function    : becke
 partition sharpness   :                     3
  

 biggest AO integral is expected to be     5.725698708
  
           ------------------------
               RI-J - INFORMATION
           ------------------------
 Contributions to RI integral batches: 
  neglected integral batches:                 34330
  direct contribution:                            0
  memory contribution:                 44276
 Memory core needed for (P|Q) and Cholesky     17 MByte
 Memory core minimum needed except of (P|Q)     3 MByte
 Total minimum memory core needed (sum)        19 MByte
  
 ****************************************
 Memory allocated for RI-J  3429 MByte
 ****************************************
                                            

          ------------------------
          nuclear repulsion energy  :   1603.28919222    
          ------------------------

  _________________________________
 |                                 |
 |         DFTD3 V3.1 Rev 0        |
 | S.Grimme, University Bonn       |
 |            June  2014           |
 |   see standalone version        |
 |       dftd3 -h for options      |
 |_________________________________|
 
 Please cite DFT-D3 work done with this code as:
 S. Grimme, J. Antony, S. Ehrlich and H. Krieg,
 J. Chem. Phys, 132 (2010), 154104.
 If used with BJ-damping cite also
 S. Grimme, S. Ehrlich and L. Goerigk,
 J. Comput. Chem. 32 (2011), 1456-1465
 For DFT-D2 the reference is
 S. Grimme, J. Comput. Chem., 27 (2006), 1787-1799
 
C6 coefficients used:
                     2  C6 for element                      1
Z=  1 CN= 0.912     C6(AA)=    3.03
Z=  1 CN= 0.000     C6(AA)=    7.59
                     5  C6 for element                      6
Z=  6 CN= 0.000     C6(AA)=   49.11
Z=  6 CN= 0.987     C6(AA)=   43.25
Z=  6 CN= 1.998     C6(AA)=   29.36
Z=  6 CN= 2.999     C6(AA)=   25.78
Z=  6 CN= 3.984     C6(AA)=   18.21

#           XYZ [au]              R0(AA) [Ang.]  CN          C6(AA)     C8(AA)   C10(AA) [au]
  1  -2.89434   3.83210  -2.21550   c   0.644  4.051        18.3       528.9     18738.2
  2  -1.08062   4.30658  -0.01990   c   0.644  4.053        18.3       528.8     18736.6
  3   2.04232  -2.68060   1.53925   c   0.644  4.053        18.3       528.9     18736.8
  4   3.81504  -2.25541   3.77765   c   0.644  4.051        18.3       528.9     18738.0
  5  -0.93787   7.07778   0.77590   c   0.644  4.051        18.3       528.9     18738.0
  6   0.81270   3.64598  -0.54228   h   0.417  1.003         3.1        37.3       553.0
  7  -1.65845   3.15709   1.60477   h   0.417  1.002         3.1        37.3       553.0
  8   0.88064   7.54007   2.96990   c   0.644  4.053        18.3       528.9     18736.9
  9  -2.83092   7.73768   1.30413   h   0.417  1.002         3.1        37.3       553.1
 10  -0.35807   8.22820  -0.84845   h   0.417  1.002         3.1        37.3       553.1
 11   1.02731  10.30980   3.77403   c   0.644  4.023        18.3       529.5     18758.1
 12   2.77296   6.87956   2.44227   h   0.417  1.002         3.1        37.3       553.0
 13   0.30436   6.38628   4.59238   h   0.417  1.002         3.1        37.3       553.0
 14   2.85258  10.75082   5.96653   c   0.644  4.012        18.3       529.7     18766.9
 15  -0.86520  10.96461   4.30388   h   0.417  1.002         3.1        37.3       553.1
 16   1.60321  11.45926   2.14976   h   0.417  1.002         3.1        37.3       553.1
 17   2.28685   9.66411   7.63117   h   0.417  0.998         3.1        37.4       553.4
 18   2.92087  12.74372   6.50425   h   0.417  0.997         3.1        37.4       553.5
 19   4.76946  10.16402   5.46326   h   0.417  0.998         3.1        37.4       553.4
 20  -3.02451   1.05617  -2.99650   c   0.644  4.053        18.3       528.8     18736.4
 21  -2.31443   4.97681  -3.84376   h   0.417  1.002         3.1        37.3       553.1
 22  -4.79031   4.48863  -1.69385   h   0.417  1.002         3.1        37.3       553.1
 23  -4.82962   0.55575  -5.19297   c   0.644  4.051        18.3       528.9     18738.1
 24  -3.60067  -0.08550  -1.36565   h   0.417  1.003         3.1        37.3       553.0
 25  -1.12677   0.40121  -3.50951   h   0.417  1.003         3.1        37.3       553.0
 26  -4.93777  -2.22771  -5.95453   c   0.644  4.025        18.3       529.4     18756.4
 27  -4.25379   1.69227  -6.82878   h   0.417  1.002         3.1        37.3       553.1
 28  -6.73210   1.20238  -4.68163   h   0.417  1.002         3.1        37.3       553.1
 29  -6.73773  -2.73780  -8.15126   c   0.644  4.011        18.3       529.7     18767.4
 30  -5.50799  -3.35693  -4.31519   h   0.417  1.002         3.1        37.3       553.1
 31  -3.03395  -2.86758  -6.45579   h   0.417  1.002         3.1        37.3       553.0
 32  -8.66840  -2.17322  -7.67437   h   0.417  0.997         3.1        37.4       553.4
 33  -6.76894  -4.74229  -8.64892   h   0.417  0.997         3.1        37.4       553.5
 34  -6.17323  -1.67657  -9.83316   h   0.417  0.997         3.1        37.4       553.4
 35   3.93172   0.49965   4.63247   c   0.644  4.053        18.3       528.9     18736.8
 36   3.20776  -3.44024   5.36686   h   0.417  1.002         3.1        37.3       553.1
 37   5.72084  -2.89785   3.27425   h   0.417  1.002         3.1        37.3       553.1
 38   5.70430   0.93129   6.87115   c   0.644  4.023        18.3       529.5     18758.0
 39   2.02669   1.14328   5.13428   h   0.417  1.002         3.1        37.3       553.0
 40   4.53522   1.68590   3.04361   h   0.417  1.002         3.1        37.3       553.0
 41   5.80396   3.69100   7.71079   c   0.644  4.013        18.3       529.7     18766.4
 42   7.60780   0.29020   6.36433   h   0.417  1.002         3.1        37.3       553.1
 43   5.09754  -0.25560   8.45683   h   0.417  1.002         3.1        37.3       553.1
 44   1.91671  -5.43420   0.68021   c   0.644  4.051        18.3       528.9     18738.0
 45   2.64912  -1.49544  -0.04881   h   0.417  1.002         3.1        37.3       553.0
 46   0.13904  -2.03289   2.04072   h   0.417  1.003         3.1        37.3       553.0
 47   0.14007  -5.84574  -1.55783   c   0.644  4.052        18.3       528.9     18736.9
 48   1.30608  -6.61994   2.26737   h   0.417  1.002         3.1        37.3       553.1
 49   3.81979  -6.08236   0.17415   h   0.417  1.002         3.1        37.3       553.1
 50   0.00134  -8.59496  -2.42697   c   0.644  4.051        18.3       528.9     18737.8
 51   0.75082  -4.65741  -3.14200   h   0.417  1.002         3.1        37.3       553.0
 52  -1.75939  -5.19123  -1.05155   h   0.417  1.003         3.1        37.3       553.0
 53  -1.77996  -8.99864  -4.66489   c   0.644  4.023        18.3       529.4     18757.5
 54  -0.61121  -9.78498  -0.84335   h   0.417  1.002         3.1        37.3       553.1
 55   1.90091  -9.24983  -2.93887   h   0.417  1.002         3.1        37.3       553.1
 56  -1.90416 -11.75172  -5.52266   c   0.644  4.012        18.3       529.7     18767.3
 57  -1.16854  -7.80642  -6.24424   h   0.417  1.002         3.1        37.3       553.1
 58  -3.67659  -8.34511  -4.15110   h   0.417  1.002         3.1        37.3       553.1
 59  -0.03968 -12.43094  -6.10234   h   0.417  0.997         3.1        37.4       553.4
 60  -3.18903 -11.98834  -7.12232   h   0.417  0.997         3.1        37.4       553.5
 61  -2.56656 -12.97392  -3.99258   h   0.417  0.997         3.1        37.4       553.4
 62   6.45695   4.90927   6.17455   h   0.417  0.998         3.1        37.4       553.4
 63   7.08275   3.95008   9.31171   h   0.417  0.997         3.1        37.4       553.5
 64   3.93306   4.35978   8.27907   h   0.417  0.998         3.1        37.4       553.4

molecular C6(AA) [au] =     26428.58

           DFT-D V3(BJ)
 DF tpssh                                             
 parameters
 s6       :    1.0000
 s8       :    2.2382
 a1       :    0.4529
 a2       :    4.6550
 k1-k3    :   16.0000    1.3333   -4.0000
 
 Edisp /kcal,au:   -43.6810 -0.06961011

 E6    /kcal :   -22.8659
 E8    /kcal :   -20.8151
 % E8        : 47.65
 nuclear repulsion energy                  =    1603.289192220
 empirical dispersive energy correction    =      -0.069610106
 nuclear repulsion + dispersion correction =    1603.219582114


         -----------------
         -S,T+V- integrals
         -----------------

 1e-integrals will be neglected if expon. factor < 0.339630E-12
 Difference densities >>NOT<< switched on in parallel ridft!

 DIIS switched on: error vector is FDS-SDF
 Max. Iterations for DIIS is     :   4
 DIIS matrix (see manual) 
    Scaling factor of diagonals  :  1.200
    threshold for scaling factor :  0.000

 scf convergence criterion : increment of total energy < .1000000D-06
                  and increment of one-electron energy < .1000000D-03

  MOs are in ASCII format !


 automatic virtual orbital shift switched on 
      shift if e(lumo)-e(homo) < 0.10000000    


 reading orbital data $scfmo  from file mos
 orbital characterization : scfconv=7

 DSCF restart information will be dumped onto file mos


 Starting SCF iterations

          Overall gridpoints after grid construction =        555442

 ITERATION  ENERGY          1e-ENERGY        2e-ENERGY     RMS[dD(SAO)]   TOL
   1  -789.08360529168    -4246.3602632     1854.0570758    0.000D+00 0.339D-11
                            Exc = -113.503235803     Coul =  1979.52443973    
                            exK = -11.9641281510    
                              N = 163.99989281    
                            current damping = 0.300
 
          max. resid. norm for Fia-block=  7.883D-05 for orbital     43a         
          max. resid. fock norm         =  8.200D-04 for orbital    270a         

 ITERATION  ENERGY          1e-ENERGY        2e-ENERGY     RMS[dD(SAO)]   TOL
   2  -789.08360553522    -4246.3601388     1854.0569511    0.738D-06 0.339D-11
                            Exc = -113.503226824     Coul =  1979.52430516    
                            exK = -11.9641272292    
                              N = 163.99989282    
                            current damping = 0.250
 
          Norm of current diis error: 0.44082E-03
          max. resid. norm for Fia-block=  2.322D-05 for orbital     81a         
          max. resid. fock norm         =  1.893D-04 for orbital    270a         

 ENERGY & DENSITY CONVERGED !


 ITERATION  ENERGY          1e-ENERGY        2e-ENERGY     RMS[dD(SAO)]   TOL
   3  -789.08360555317    -4246.3602923     1854.0571046    0.243D-06 0.339D-11
                            Exc = -113.503238257     Coul =  1979.52447129    
                            exK = -11.9641284032    
                              N = 163.99989282    
                            current damping = 0.300
 
          Norm of current diis error: 0.20597E-03
          max. resid. norm for Fia-block=  8.091D-06 for orbital     81a         
          max. resid. fock norm         =  3.812D-05 for orbital    270a         

 End of SCF iterations

   convergence criteria satisfied after     3 iterations


                  ------------------------------------------ 
                 |  total energy      =   -789.08360555317  |
                  ------------------------------------------ 
                 :  kinetic energy    =    784.84923619993  :
                 :  potential energy  =  -1573.93284175310  :
                 :  virial theorem    =      1.99463381406  :
                 :  wavefunction norm =      1.00000000000  :
                  .......................................... 


 orbitals $scfmo  will be written to file mos

    irrep                 78a         79a         80a         81a         82a   
 eigenvalues H         -0.29980    -0.29909    -0.29605    -0.27578    -0.27562
            eV          -8.1582     -8.1386     -8.0559     -7.5044     -7.5000
 occupation              2.0000      2.0000      2.0000      2.0000      2.0000 

    irrep                 83a         84a         85a         86a         87a   
 eigenvalues H          0.02495     0.03079     0.03922     0.04099     0.04694
            eV           0.6788      0.8380      1.0671      1.1155      1.2774
 
 
 
 
 ==============================================================================
                           electrostatic moments
 ==============================================================================

 reference point for electrostatic moments:    0.00000   0.00000   0.00000

 
              nuc           elec       ->  total
 ------------------------------------------------------------------------------
                          charge      
 ------------------------------------------------------------------------------
         164.000000    -164.000000      -0.000000
 
 ------------------------------------------------------------------------------
                       dipole moment  
 ------------------------------------------------------------------------------
   x      -0.052799       0.057801       0.005003
   y       0.121295      -0.118497       0.002798
   z      -0.025669       0.031853       0.006184
 
   | dipole moment | =     0.0084 a.u. =     0.0214 debye 
 
 ------------------------------------------------------------------------------
                     quadrupole moment
 ------------------------------------------------------------------------------
  xx    2086.476515   -2188.417674    -101.941159
  yy    6503.640545   -6608.525926    -104.885382
  zz    3594.253018   -3697.242825    -102.989808
  xy     825.529871    -825.431248       0.098623
  xz    2447.333031   -2449.950818      -2.617787
  yz    2673.450049   -2674.657724      -1.207674
 
     1/3  trace=    -103.272116
     anisotropy=       5.625272
 
 ==============================================================================
 


    ------------------------------------------------------------------------
         total  cpu-time :  3 hours  5 minutes and 21 seconds
         total wall-time : 10 minutes and 26 seconds
    ------------------------------------------------------------------------

   ****  ridft : all done  ****


    2020-06-23 12:32:30.280 

fine, there is no data group "$actual step"
next step = rdgrad
 energy change  : actual value =  -0.2487E-06 threshold =   0.1000E-05
 geom. gradient : actual value =   0.2490E-04 threshold =   0.1000E-02

CONVERGENCY CRITERIA FULFILLED IN CYCLE 3

