           Doing BLAS/Lapack in the master proc. with  8 CPUs.
           SMPCPUS    set: Shared-memory Parallelization with   8 CPUs.

           SMP Parallelization Reference:
           C. van Wullen, J. Comput. Chem. 32 (2011) 1195--1201

 force (c-12-38) : TURBOMOLE V7.2 ( 21454 ) 4 Oct 2017 at 12:48:15
 Copyright (C) 2017 TURBOMOLE GmbH, Karlsruhe


    2020-06-21 00:41:26.608 



                             T U R B O M O L E   

                          a o f o r c e - program

                        using direct algorithms for

                       SCF level calculations of
                         * harmonic force constants
                         * hyperpolarizabilities
                         * IR and RAMAN intensities
                         * VCD intensities

                       DFT level calculations of
                         * harmonic force constants
                         * IR intensities
                                                   
       Stephan Boecker, Peter Deglmann, Filipp Furche and Marco Haeser
                          Quantum Chemistry Group
                          Universitaet  Karlsruhe
                                   Germany

 
 
 
 
     References :
 
       RI-J implementation:
         Peter Deglmann, Klaus May, Filipp Furche, Reinhart Ahlrichs
                 Chem. Phys. Lett. 384:103 (2004)
 
       Efficiency, technical details:
         Peter Deglmann, Filipp Furche, Reinhart Ahlrichs
                 Chem. Phys. Lett. 362:511 (2002)
 
       Search of lowest eigenvalues by iterative diagonalization:
         Peter Deglmann, Filipp Furche
                 J. Chem. Phys. 117:9535 (2002)
 
       Vibrational circular dichroism implementation:
        Kevin Reiter, Michael Kuehn, Florian Weigend
                 J. Chem. Phys. 146:054102 (2017)  
 
 


              +--------------------------------------------------+
              | Atomic coordinate, charge and isotop information |
              +--------------------------------------------------+

                    atomic coordinates            atom    charge  isotop
          3.88065434    2.45789871    3.83695044    h      1.000     0
          2.95507236    2.79284661    2.04022486    c      6.000     0
          0.34010054    3.05248635    1.93765417    c      6.000     0
         -0.77285139    2.90449492    3.64965986    h      1.000     0
         -0.84916440    3.46904205   -0.36772963    c      6.000     0
         -2.88728047    3.64415587   -0.44950666    h      1.000     0
          0.57535237    3.62595784   -2.57269156    c      6.000     0
         -0.35430711    3.93970356   -4.37108537    h      1.000     0
          3.18920690    3.36073557   -2.47273350    c      6.000     0
          4.29839273    3.47835965   -4.19124539    h      1.000     0
          4.38011463    2.94382782   -0.16403040    c      6.000     0
          6.41678227    2.73683727   -0.08441496    h      1.000     0
          0.35655707   -3.94238199    4.36937987    h      1.000     0
         -4.29688562   -3.48851860    4.19141877    h      1.000     0
         -0.57405531   -3.62740566    2.57175490    c      6.000     0
         -3.18832561   -3.36640814    2.47286310    c      6.000     0
          0.84962090   -3.46491075    0.36670843    c      6.000     0
         -4.38055788   -2.94794423    0.16514320    c      6.000     0
          2.88802332   -3.63680543    0.44762606    h      1.000     0
         -6.41759561   -2.74423534    0.08631985    h      1.000     0
         -0.34090252   -3.04683364   -1.93776823    c      6.000     0
         -2.95636870   -2.79131581   -2.03929992    c      6.000     0
          0.77138748   -2.89442803   -3.64986331    h      1.000     0
         -3.88297029   -2.45515862   -3.83533456    h      1.000     0
 
       center of nuclear mass  :    0.00000657    0.00000549    0.00000672
       center of nuclear charge:    0.00000555    0.00000464    0.00000568

              +--------------------------------------------------+
              |               basis set information              |
              +--------------------------------------------------+

              we will work with the 1s 3p 5d 7f 9g ... basis set
              ...i.e. with spherical basis functions...

   type   atoms  prim   cont   basis
   ---------------------------------------------------------------------------
    h       12      8      6   def2-TZVP   [3s1p|5s1p]
    c       12     46     31   def2-TZVP   [5s3p2d1f|11s6p2d1f]
   ---------------------------------------------------------------------------
   total:   24    648    444
   ---------------------------------------------------------------------------

   total number of primitive shells          :   26
   total number of contracted shells         :  180
   total number of cartesian basis functions :  504
   total number of SCF-basis functions       :  444

 
             FOUND RI-J FLAG !
 

 NOTE: THIS IS A PRELIMINARY IMPLEMENTATION. THE RI APPROXIMATION IS
       PRESENTLY USED FOR CPKS CONTRIBUTIONS TO THE HESSIAN ONLY! SEE
       MANUAL FOR FURTHER DETAILS.

  
 AUXILIARY BASIS SET information:

              we will work with the 1s 3p 5d 7f 9g ... basis set
              ...i.e. with spherical basis functions...

   type   atoms  prim   cont   basis
   ---------------------------------------------------------------------------
    h       12     16     11   def2-TZVP   [3s1p1d|5s2p1d]
    c       12     70     49   def2-TZVP   [6s4p3d1f1g|12s5p4d2f1g]
   ---------------------------------------------------------------------------
   total:   24   1032    720
   ---------------------------------------------------------------------------

   total number of primitive shells          :   32
   total number of contracted shells         :  240
   total number of cartesian basis functions :  876
   total number of SCF-basis functions       :  720


 symmetry group of the molecule :   c1 

 the group has the following generators :
   c1(z)

    1 symmetry operations found

 there are 1 real representations :   a   

 maximum number of shells which are related by symmetry :  1


 determining totally symmetric integral contributions 
    - equivalent to irreducible tensor elements - 
 which can be formed within each triple of representations :

             representation triple      contributions

              a     a     a               1

    mo occupation :
   irrep   mo's   occupied
    a      444       42
 
 number of basis functions   :                    444
 number of occupied orbitals :                     42
 
  MOs are in ASCII format !


 reading orbital data $scfmo  from file mos
 orbital characterization : scfconv=7
 time elapsed for calculating density matrices :   0.186 sec

 number of non-frozen orbitals          :   444
 number of non-frozen occupied orbitals :    42
 Blocking parameters 
 shells:
    index      start shell   last shell  start bf    last bf    #bf 
       1             1         180             1        504    504
  
           ----------------------
               RI - INFORMATION
           ----------------------

 biggest AO integral is expected to be     5.725698708

 Threshold for integral neglect (rithr2):   0.50E-11
 Threshold for integral neglect (rithr1):   0.50E-11

 Contributions to RI integral batches: 
  neglected integral batches:                  2104
  direct contribution:                            0
  memory contribution:                 14186
 Core memory available (ricore):             25000 MiB
 Core memory needed for (P|Q) and Cholesky:      4 MiB
 Core memory used for integrals:               769 MiB
 
 ****************************************
 Memory allocated for RIDFT: 773 MiB
 ****************************************
 
  
           ------------------
           density functional
           ------------------
 TPSS global hybrid functional
 exchange:    9/10 (LDA+TPSS) + 1/10 HF
 correlation: LDA (PW) + TPSS

 iterations will be done with small grid
  
 spherical integration : Lebedev's spherical grid
 spherical gridsize    :                     3
    i.e. gridpoints    :                   302
 value for diffuse not defined
 radial integration    : Chebyshev 2nd kind (scaling 3)
 radial gridsize       :                     3
 integration cells     :                    24
 partition function    : becke
 partition sharpness   :                     3
  
 
 Derivatives of quadrature weights will be included
 
          Overall gridpoints after grid construction =        114289
 Ordering of quadrature gridpoints disabled.
 
 
 
 
 OCCUPIED-OCCUPIED TENSOR SPACES :

          IRREP   tensor space dimension   number of roots

           a              1764                  66
 
 OCCUPIED-VIRTUAL TENSOR SPACES :

          IRREP   tensor space dimension   number of roots

           a             16884                  66
 
 
 
 
 CONSTRUCTING integral bounds

 setting up bound for integral derivative estimation

 increment for numerical differentiation : 0.00050000
 
 machine precision:   2.220446049250313E-016

 integral neglect threshold       :  0.10E-09
 integral storage threshold THIZE :  0.10E-04
 integral storage threshold THIME :         5

 
 
 
 PREPARING NUMERICAL INTEGRATION
 
 Remaining core memory for DFT =                 27580 MB
 
 Memory needed per atom    =                  2982 KiB
 
     i. e.                    24 atoms per loop

 Calculating ground state density on molecular grid

 Integral of ground state density: N =   84.00026294527916    


 
 
 CONSTRUCTING first deriv. of <mu|x,y,z|nu> -> Dip. deriv.
  dipole integral derivatives will be neglected if
  expon. factor <0.992063E-12
      ...terminated. cpu:       0.70       wall:       0.09
 
 
 
 
 CONSTRUCTING first deriv. of  <mu|nu>
                               <mu|h|nu>    -> RHS
              second deriv. of <mu|nu>      -> Hessian
                               <mu|h|nu>    -> Hessian
                               nucl. rep.   -> Hessian
     integrals are neglected if expon. factor <  9.920634920634920E-014
  _________________________________
 |                                 |
 |         DFTD3 V3.1 Rev 0        |
 | S.Grimme, University Bonn       |
 |         June 2014               |
 |   see standalone version        |
 |       dftd3 -h for options      |
 |_________________________________|
 
 Please cite DFT-D3 work done with this code as:
 S. Grimme, J. Antony, S. Ehrlich and H. Krieg,
 J. Chem. Phys, 132 (2010), 154104.
 If used with BJ-damping cite also
 S. Grimme, S. Ehrlich and L. Goerigk,
 J. Comput. Chem. 32 (2011), 1456-1465
 For DFT-D2 the reference is
 S. Grimme, J. Comput. Chem., 27 (2006), 1787-1799
 
      ...terminated. cpu:       8.41       wall:       3.93
 
 
 
 
 CONSTRUCTING second deriv. of 2e energy    -> Hessian
   treating Coulomb (and exchange) contribution
     integrals will be neglected if total contribution <  9.920634920634920E-010
      ...terminated. cpu:    2659.45       wall:     332.87
   treating exchange-correlation contribution
      ...terminated. cpu:     660.04       wall:      82.56
 
 
 
 
 CONSTRUCTING S(i,j)xi
      ...terminated. cpu:       0.04       wall:       0.04
 
 
 
 
 CONSTRUCTING <i|x,y,z|j>*S(i,j)xi          -> Dip. deriv.
      ...terminated. cpu:       0.58       wall:       0.39
 
 
 
 
 CONSTRUCTING epsilon(i)*S(i,j)xi*S(i,j)chi -> Hessian
      ...terminated. cpu:       0.06       wall:       0.01
 
 
 
 
 CONSTRUCTING G(a,i)[S(k,l)xi]              -> RHS
              G(i,j)[S(k,l)xi]*S(i,j)chi    -> Hessian
 
         Maximum core memory set to                  28000 MB
         This corresponds to                 14302 vectors in CAO basis
      ...terminated. cpu:    6054.88       wall:     757.35
 
 
 
 
 CONSTRUCTING G(mu,nu)[D(kap,lam)]xi
 
          Maximum core memory set to                  28000 MB
          Atoms treated simultaneously :                    24
      ...terminated. cpu:    3119.55       wall:     390.12
 
 
 
 
 CONSTRUCTING F(a,i)xi                      -> RHS
              F(i,j)xi*S(i,j)chi            -> Hessian
 
        Maximum core memory set to                 28000 MB
        This corresponds to                 25460 vectors in CAO basis
      ...terminated. cpu:      11.92       wall:       2.56
 
 
 
 
 CONSTRUCTING epsilon(i)*S(a,i)xi           -> RHS
      ...terminated. cpu:       2.19       wall:       0.48
 
 
 
 
 SOLVING CPHF equations
 
 Residuum convergence criterium   :  1.000000000000000E-005
 
 Maximum number of Davidson iterations set to                    25
  Switching to small grid
        preparing numerical integration ....
          Overall gridpoints after grid construction =         30792

 Calculating ground state density on molecular grid

 Integral of ground state density: N =   84.00230101505410    




                       Nonorthonormal Krylov Space Iteration


 total number of roots to be determined:  66


 maximum core memory set to 28000 MB,
 corresponding to    14253 vectors in CAO basis


 maximum number of simultaneously treated vectors (including degeneracy):       66


 Iteration IRREP Converged      Max. Euclidean
                 roots          residual norm

    1       a        0        6.881465069922334D-02
 
    2       a        0        8.568587241211954D-03
 
    3       a        0        5.969433111298591D-04
 
    4       a       25        3.790621685839326D-05
 
    5       a       66        9.834559649201659D-06
 

 converged!

  Switching to fine grid
        preparing numerical integration ....
          Overall gridpoints after grid construction =        114289

 Calculating ground state density on molecular grid

 Integral of ground state density: N =   84.00026294527981    



 Iteration IRREP Converged      Max. Euclidean
                 roots          residual norm

    6       a        0        5.842409626906801D-04
 

 NOTE: Residual norms are larger than 1.00D-05 due to mgrid option!

      ...terminated. cpu:   17560.21       wall:    2264.60
 
 
 
 
 CONSTRUCTING <a|x,y,z|i>*U(a,i)xi          -> Dip. deriv.
      ...terminated. cpu:       2.07       wall:       0.62
 
 
 
 
 CONSTRUCTING RHS(a,i)xi*U(a,i)chi          -> Hessian
      ...terminated. cpu:       0.20       wall:       0.03
 
 
 
 

            -----------------------
            permanent dipole moment
            -----------------------

                                   x                y                z
    electronic part       :   -0.0003807975     0.0000697124    -0.0002594014
     nuclear   part       :    0.0004663349     0.0003900889     0.0004770171
     total                :    0.0000855374     0.0004598014     0.0002176157

 with reference to the point :   0.0000000        0.0000000        0.0000000
 (given in atomic units)
    | dipole |       :    0.0013111435  debye

   ***  dipole moment & cartesian dipole gradients written onto
        $dipole, $dipgrad,  file=<dipgrad>  ***

             -----------------------------------
             rotational and vibrational analysis
             -----------------------------------


            ==============================================================
            ATOMIC WEIGHTS (average over the natural occurance of isotops)
            ==============================================================
            ('*' denotes special isotop !)
              1     h                 1.00797
              2     c                12.01115
              3     c                12.01115
              4     h                 1.00797
              5     c                12.01115
              6     h                 1.00797
              7     c                12.01115
              8     h                 1.00797
              9     c                12.01115
             10     h                 1.00797
             11     c                12.01115
             12     h                 1.00797
             13     h                 1.00797
             14     h                 1.00797
             15     c                12.01115
             16     c                12.01115
             17     c                12.01115
             18     c                12.01115
             19     h                 1.00797
             20     h                 1.00797
             21     c                12.01115
             22     c                12.01115
             23     h                 1.00797
             24     h                 1.00797

          -------------------------------------------------
          CARTESIAN FORCE CONSTANT MATRIX (hartree/bohr**2)
         (translational & rotational space projected out)
          -------------------------------------------------

   ATOM              1 h                           2 c 
                  dx        dy        dz        dx        dy        dz
   1 h     dx  0.1184464
           dy -0.0250551 0.0340077
           dz  0.1168254-0.0468030 0.2853016
   2 c     dx -0.1149732 0.0222591-0.1079680 0.6711569
           dy  0.0224705-0.0437590 0.0423419-0.0545079 0.1471016
           dz -0.1079510 0.0425146-0.2689232 0.0211034-0.0799776 0.7077402
   3 c     dx -0.0091110 0.0008894 0.0015261-0.3314986 0.0308345-0.0384976
           dy  0.0052377 0.0021228-0.0001041 0.0220258-0.0642260 0.0129757
           dz -0.0298978 0.0029860 0.0023402 0.0243186 0.0063230-0.1259837
   4 h     dx  0.0011971-0.0003602-0.0005090-0.0120619-0.0026874 0.0286384
           dy -0.0005294-0.0037465-0.0005838 0.0018932 0.0029433-0.0030937
           dz  0.0004319-0.0007519 0.0007150-0.0028067 0.0000293 0.0046326
   5 c     dx -0.0059828 0.0013623 0.0001628-0.0216928 0.0069972-0.0328626
           dy  0.0010881 0.0072936 0.0007350 0.0123196 0.0059029-0.0001785
           dz  0.0012035 0.0005596 0.0019897-0.0760214 0.0050236 0.0279343
   6 h     dx -0.0006588 0.0000490 0.0001623 0.0010075 0.0008541-0.0030038
           dy  0.0003095 0.0001584 0.0000134 0.0009464 0.0070453 0.0021065
           dz -0.0015562 0.0001952-0.0000236-0.0019563 0.0018531-0.0048234
   7 c     dx -0.0009166-0.0002062 0.0008101-0.0516251 0.0010723 0.0274703
           dy -0.0000786-0.0007623-0.0002255 0.0013268-0.0075326-0.0017226
           dz  0.0008490-0.0002420 0.0003024 0.0267647-0.0018645-0.0136381
   8 h     dx  0.0000922-0.0001276-0.0001107-0.0008972-0.0000884 0.0008362
           dy -0.0001303-0.0013110-0.0001627-0.0002360-0.0007824-0.0002422
           dz -0.0001164-0.0001546-0.0000535 0.0008448-0.0002278 0.0002775
   9 c     dx -0.0012481 0.0002780 0.0046125 0.0613606-0.0031930-0.0163030
           dy  0.0003807 0.0074411 0.0009421-0.0087731 0.0055308 0.0097727
           dz  0.0034627 0.0010932-0.0027084 0.0273603 0.0055577-0.0571710
  10 h     dx  0.0004160 0.0000938-0.0007881-0.0004754 0.0011579-0.0030307
           dy -0.0001157 0.0002350 0.0002466 0.0012976 0.0073315 0.0017049
           dz  0.0009458 0.0000941-0.0011151-0.0041706 0.0018334-0.0033284
  11 c     dx  0.0117816 0.0012199-0.0150204-0.1869510-0.0046199 0.1268586
           dy -0.0031896 0.0020032 0.0042953 0.0036780-0.0612873 0.0157712
           dz  0.0164885 0.0010249-0.0188830 0.0644250 0.0224736-0.2725780
  12 h     dx  0.0009049-0.0004961 0.0002452-0.0132252 0.0019592-0.0036005
           dy -0.0003699-0.0037318-0.0006964-0.0019832 0.0022913-0.0001045
           dz -0.0007426-0.0005738 0.0010290 0.0278866-0.0031913 0.0057685
  13 h     dx  0.0000057-0.0000265-0.0000253 0.0000141 0.0000189 0.0000347
           dy -0.0001038-0.0000891-0.0000575 0.0001063 0.0001073 0.0000143
           dz  0.0000626 0.0000666 0.0000602-0.0000531-0.0000475-0.0000524
  14 h     dx -0.0000139 0.0000125 0.0000092 0.0000171-0.0000098 0.0000004
           dy -0.0000036 0.0000088 0.0000097-0.0000120-0.0000010-0.0000475
           dz -0.0000016-0.0000115-0.0000048 0.0000116 0.0000096 0.0000151
  15 c     dx -0.0000117 0.0000492 0.0000225-0.0000177-0.0005746 0.0001836
           dy  0.0000840 0.0000975 0.0000518-0.0003473-0.0005953 0.0002192
           dz -0.0000805-0.0000489-0.0000373 0.0001210-0.0001102 0.0003863
  16 c     dx -0.0000423-0.0000772-0.0000621 0.0003273 0.0005760-0.0001649
           dy  0.0000251 0.0000113 0.0000018 0.0001580-0.0000467 0.0000262
           dz  0.0000041 0.0000235-0.0000001 0.0002308 0.0001848-0.0001040
  17 c     dx  0.0000247-0.0000504-0.0000900 0.0001070 0.0000875-0.0000276
           dy  0.0000277 0.0000902 0.0000558-0.0001482-0.0004541 0.0001803
           dz  0.0000108 0.0000330 0.0000367 0.0000707 0.0000234-0.0000937
  18 c     dx  0.0000242 0.0000204 0.0000380-0.0000830-0.0000487 0.0000385
           dy -0.0000267-0.0000273-0.0000335-0.0001026 0.0000811 0.0000890
           dz  0.0000127 0.0000710 0.0000517-0.0004104-0.0003135 0.0000925
  19 h     dx  0.0000225 0.0000594 0.0000481 0.0000343-0.0001734 0.0000933
           dy -0.0000154-0.0000575-0.0000548 0.0000199 0.0000409-0.0001822
           dz -0.0000246-0.0000578-0.0000767-0.0000026-0.0000456 0.0000937
  20 h     dx  0.0000170 0.0000160 0.0000098 0.0000067-0.0000217 0.0000095
           dy  0.0000081-0.0000025 0.0000055 0.0000132 0.0000102-0.0000064
           dz  0.0000055 0.0000107 0.0000088-0.0000101-0.0000114-0.0000192
  21 c     dx -0.0000258 0.0000104 0.0000210-0.0001510 0.0002537 0.0001297
           dy -0.0000050 0.0000187 0.0000134 0.0003042 0.0002664 0.0000338
           dz -0.0000008-0.0000467-0.0000735 0.0000986 0.0000391-0.0001068
  22 c     dx  0.0000401 0.0000748 0.0000676-0.0004386-0.0003534 0.0001013
           dy -0.0000296-0.0000082-0.0000320-0.0003535 0.0001159 0.0001559
           dz  0.0000284-0.0000077 0.0000220 0.0001012 0.0001561-0.0001345
  23 h     dx -0.0000001-0.0000089-0.0000077 0.0000187 0.0000259-0.0000843
           dy  0.0000072 0.0000102 0.0000320 0.0000416-0.0000762-0.0000011
           dz  0.0000201 0.0000165 0.0000312-0.0000054-0.0000277-0.0000061
  24 h     dx  0.0000118 0.0000142 0.0000205 0.0000404-0.0000298 0.0000284
           dy  0.0000141-0.0000033 0.0000088 0.0000743-0.0000076-0.0000078
           dz  0.0000205 0.0000088 0.0000107 0.0000674-0.0000317 0.0000220

   ATOM              3 c                           4 h 
                  dx        dy        dz        dx        dy        dz
   3 c     dx  0.6797962
           dy -0.0436282 0.1485418
           dz -0.0389333-0.0758666 0.7054416
   4 h     dx -0.1405536-0.0087858 0.1255254 0.1461298
           dy -0.0092065-0.0383714 0.0203626 0.0088141 0.0278214
           dz  0.1252357 0.0195679-0.2513907-0.1356629-0.0227029 0.2660345
   5 c     dx -0.1699514 0.0249249-0.1144718 0.0117139-0.0032852 0.0179716
           dy  0.0159299-0.0680431 0.0410515 0.0011685 0.0026339 0.0015241
           dz -0.0508726 0.0357263-0.2876273-0.0135594 0.0041240-0.0187424
   6 h     dx -0.0105453 0.0008129 0.0021237 0.0008705-0.0003227-0.0003346
           dy  0.0051566 0.0025758-0.0003620-0.0004904-0.0038530-0.0007047
           dz -0.0294075 0.0022919 0.0036103 0.0005766-0.0006967 0.0010533
   7 c     dx  0.0623627-0.0087196 0.0268696-0.0005107 0.0012193-0.0040754
           dy -0.0034573 0.0067473 0.0050199 0.0010354 0.0070506 0.0018741
           dz -0.0163862 0.0102994-0.0568686-0.0030739 0.0016043-0.0033426
   8 h     dx -0.0012620 0.0003149 0.0035001 0.0004184-0.0001245 0.0009323
           dy  0.0002629 0.0073436 0.0011257 0.0000593 0.0001799 0.0000863
           dz  0.0045682 0.0009315-0.0027578-0.0007978 0.0002284-0.0011201
   9 c     dx -0.0456011 0.0074837-0.0291192-0.0006833 0.0001118-0.0009366
           dy  0.0075138-0.0094787 0.0041417 0.0001226-0.0006436-0.0000278
           dz -0.0297365 0.0037502-0.0180675-0.0009240 0.0000274 0.0001476
  10 h     dx -0.0007164 0.0001200-0.0009424 0.0000756-0.0001455 0.0000882
           dy  0.0001270-0.0008158-0.0000109-0.0001193-0.0012915-0.0002012
           dz -0.0009359-0.0000427 0.0001720 0.0000902-0.0001843-0.0000380
  11 c     dx -0.0331118 0.0001017 0.0271270-0.0057277 0.0013734-0.0006233
           dy -0.0050301 0.0086834-0.0061613 0.0013723 0.0069604 0.0009178
           dz  0.0705590-0.0103406 0.0358774-0.0017340 0.0009526 0.0018320
  12 h     dx  0.0004391 0.0001598 0.0037977-0.0008018 0.0001467-0.0002352
           dy  0.0002687 0.0073223 0.0011487-0.0000711 0.0002612 0.0000513
           dz  0.0026819 0.0013060-0.0044354 0.0014921-0.0001252 0.0000978
  13 h     dx  0.0000610-0.0000095-0.0000630-0.0000372 0.0000385 0.0000044
           dy -0.0000519 0.0001130 0.0000748 0.0001028-0.0000979-0.0000426
           dz  0.0000125-0.0000325-0.0000081-0.0000504 0.0000375 0.0000098
  14 h     dx -0.0000684 0.0000305 0.0001008 0.0000085-0.0000375-0.0000201
           dy -0.0000485 0.0000714 0.0001476-0.0000033-0.0000540-0.0000651
           dz  0.0000250 0.0000162-0.0000879 0.0000208 0.0000122 0.0000264
  15 c     dx -0.0001674-0.0003143-0.0002013 0.0000447 0.0000920 0.0001589
           dy -0.0001963-0.0005733-0.0002358-0.0000939-0.0000215 0.0001377
           dz -0.0000030-0.0000559 0.0000390-0.0000085 0.0000264 0.0001467
  16 c     dx -0.0000234-0.0000493 0.0000620 0.0000727-0.0000798-0.0001017
           dy -0.0002894-0.0006351-0.0001433-0.0001057 0.0000774 0.0001896
           dz -0.0000212-0.0000361 0.0000435-0.0000433 0.0000949 0.0001396
  17 c     dx  0.0003144-0.0002979 0.0001382-0.0001052 0.0001331 0.0000864
           dy  0.0002570-0.0013750 0.0002765-0.0000335 0.0001732 0.0000340
           dz -0.0000301-0.0008820 0.0003811 0.0001148 0.0000141-0.0001257
  18 c     dx -0.0000649 0.0001390 0.0000267 0.0000044-0.0000919-0.0000777
           dy  0.0001752 0.0001746 0.0000162 0.0000725 0.0000881 0.0000812
           dz  0.0000217 0.0001763 0.0001734 0.0000424-0.0001123-0.0001524
  19 h     dx -0.0002036 0.0000143-0.0000046 0.0000090-0.0000298-0.0000348
           dy  0.0001179 0.0001662-0.0000638-0.0000239-0.0000225 0.0000257
           dz  0.0000816 0.0000689-0.0000279 0.0000159-0.0000069 0.0000068
  20 h     dx  0.0000349-0.0000183 0.0000050-0.0000236 0.0000280-0.0000066
           dy  0.0000299-0.0000150-0.0000070-0.0000193-0.0000037-0.0000190
           dz -0.0000123-0.0000019 0.0000204-0.0000178 0.0000077-0.0000049
  21 c     dx  0.0000955 0.0001228-0.0000345-0.0000490-0.0000389 0.0000133
           dy  0.0001209-0.0005942 0.0002302 0.0000361-0.0000164-0.0000244
           dz -0.0000374 0.0002296-0.0006702-0.0000223-0.0000487 0.0000036
  22 c     dx -0.0001500 0.0003035 0.0000961 0.0000183 0.0000415-0.0000049
           dy  0.0002542 0.0002636 0.0000425 0.0000260-0.0000752-0.0000272
           dz  0.0001278 0.0000342-0.0001046-0.0000835-0.0000012-0.0000065
  23 h     dx -0.0000493 0.0000364-0.0000226-0.0000086-0.0000068-0.0000222
           dy -0.0000393-0.0000170-0.0000490-0.0000068-0.0000024 0.0000314
           dz  0.0000133-0.0000250 0.0000043-0.0000222 0.0000314 0.0000467
  24 h     dx -0.0000255-0.0000050-0.0000006 0.0000000 0.0000071 0.0000201
           dy  0.0000098 0.0000189-0.0000471-0.0000089 0.0000102 0.0000164
           dz  0.0000207 0.0000134-0.0000735-0.0000077 0.0000320 0.0000310

   ATOM              5 c                           6 h 
                  dx        dy        dz        dx        dy        dz
   5 c     dx  0.7315790
           dy -0.0507647 0.1471975
           dz -0.0018596-0.0690239 0.6548157
   6 h     dx -0.3321106 0.0255991-0.0107386 0.3532696
           dy  0.0246195-0.0385123 0.0040135-0.0279678 0.0278990
           dz -0.0107276 0.0039810-0.0593694 0.0115796-0.0051849 0.0584732
   7 c     dx -0.1873938 0.0027192 0.0635538-0.0130446-0.0020533 0.0280145
           dy -0.0053058-0.0625765 0.0223409 0.0017202 0.0028842-0.0027931
           dz  0.1265851 0.0160598-0.2715855-0.0035511-0.0001059 0.0056670
   8 h     dx  0.0118411-0.0029431 0.0164207 0.0009032-0.0003375-0.0007222
           dy  0.0011389 0.0023821 0.0011298-0.0003650-0.0037901-0.0005695
           dz -0.0150876 0.0040656-0.0189045 0.0002414-0.0006533 0.0010450
   9 c     dx -0.0330390-0.0059860 0.0703602 0.0004366 0.0003678 0.0026513
           dy  0.0005698 0.0086232-0.0111557 0.0000065 0.0070799 0.0012651
           dz  0.0272791-0.0062914 0.0357016 0.0036952 0.0010820-0.0044391
  10 h     dx -0.0057860 0.0014689-0.0017151-0.0007852-0.0000769 0.0015024
           dy  0.0012977 0.0072645 0.0010336 0.0001319 0.0002671-0.0001389
           dz -0.0006159 0.0008233 0.0018835-0.0002265 0.0000345 0.0000765
  11 c     dx  0.0004222-0.0006533 0.0031675 0.0007303-0.0002486 0.0000588
           dy -0.0010614-0.0091382 0.0072238-0.0001275-0.0006558 0.0000777
           dz  0.0036360 0.0073838-0.0644035 0.0000684 0.0000157-0.0012939
  12 h     dx  0.0007418-0.0001539 0.0000989-0.0000862-0.0001108-0.0000283
           dy -0.0002557-0.0007756-0.0000010-0.0000836-0.0012980-0.0001956
           dz  0.0000874 0.0000565-0.0013261-0.0000210-0.0001855 0.0001310
  13 h     dx -0.0000621-0.0000000-0.0000121 0.0000082-0.0000219-0.0000053
           dy  0.0000667 0.0000100 0.0000508-0.0000253 0.0000260 0.0000009
           dz -0.0000191 0.0000100-0.0000338 0.0000215-0.0000273 0.0000068
  14 h     dx  0.0000286-0.0000105-0.0000235 0.0000021 0.0000070 0.0000074
           dy  0.0000106-0.0000123-0.0000325 0.0000003-0.0000091 0.0000338
           dz  0.0000092 0.0000030 0.0000208 0.0000071-0.0000206-0.0000299
  15 c     dx -0.0001255 0.0002155 0.0000489 0.0000318 0.0000218-0.0000697
           dy  0.0001441 0.0002340-0.0000843 0.0000207-0.0000681-0.0000039
           dz  0.0000188-0.0001610-0.0000993 0.0000124-0.0000360-0.0000468
  16 c     dx  0.0000808-0.0000527 0.0001035-0.0000717 0.0000515-0.0000085
           dy  0.0000318 0.0002305-0.0000226 0.0000406 0.0000674-0.0000508
           dz  0.0001197-0.0001415-0.0000807-0.0001151 0.0002011-0.0000434
  17 c     dx -0.0003877-0.0000576-0.0003947-0.0000072 0.0000030 0.0000002
           dy -0.0000595-0.0004751-0.0002500 0.0000285-0.0000393-0.0000165
           dz -0.0003933-0.0002512-0.0003333 0.0000480 0.0000531-0.0000312
  18 c     dx -0.0000560-0.0000665 0.0000431 0.0001302-0.0001833-0.0000039
           dy -0.0001835-0.0007255 0.0001140-0.0002381 0.0001419-0.0000101
           dz  0.0000538-0.0001699 0.0000235-0.0000795 0.0000452 0.0000338
  19 h     dx -0.0000068 0.0000288 0.0000488 0.0000392-0.0000405 0.0000060
           dy  0.0000024-0.0000393 0.0000531-0.0000405 0.0000175-0.0000072
           dz  0.0000003-0.0000163-0.0000320 0.0000060-0.0000073-0.0000192
  20 h     dx -0.0001534 0.0000463-0.0000224 0.0000173-0.0000508 0.0000186
           dy -0.0001194 0.0001012-0.0000128 0.0000364-0.0000657 0.0000093
           dz  0.0000043-0.0000008-0.0000285 0.0000036-0.0000025 0.0000267
  21 c     dx  0.0003154 0.0002580-0.0000298-0.0002027 0.0001180 0.0000807
           dy -0.0002989-0.0013832-0.0008842 0.0000138 0.0001672 0.0000691
           dz  0.0001381 0.0002733 0.0003817-0.0000041-0.0000642-0.0000277
  22 c     dx  0.0001059-0.0001478 0.0000731 0.0000346 0.0000199-0.0000021
           dy  0.0000843-0.0004554 0.0000275-0.0001731 0.0000416-0.0000457
           dz -0.0000258 0.0001775-0.0000935 0.0000918-0.0001814 0.0000934
  23 h     dx -0.0001055-0.0000336 0.0001160 0.0000089-0.0000238 0.0000160
           dy  0.0001343 0.0001732 0.0000143-0.0000298-0.0000225-0.0000068
           dz  0.0000871 0.0000340-0.0001272-0.0000349 0.0000258 0.0000068
  24 h     dx  0.0000248 0.0000276 0.0000113 0.0000225-0.0000154-0.0000246
           dy -0.0000503 0.0000900 0.0000322 0.0000594-0.0000576-0.0000576
           dz -0.0000902 0.0000562 0.0000363 0.0000482-0.0000552-0.0000763

   ATOM              7 c                           8 h 
                  dx        dy        dz        dx        dy        dz
   7 c     dx  0.6729388
           dy -0.0528709 0.1458183
           dz  0.0224498-0.0764858 0.7075072
   8 h     dx -0.1154853 0.0211715-0.1086073 0.1190576
           dy  0.0208572-0.0429425 0.0395992-0.0236358 0.0331549
           dz -0.1086197 0.0396234-0.2695136 0.1175432-0.0438501 0.2858465
   9 c     dx -0.3324599 0.0315487-0.0385107-0.0092439 0.0009418 0.0016267
           dy  0.0233373-0.0621556 0.0128148 0.0048257 0.0017527-0.0001417
           dz  0.0239104 0.0062302-0.1257305-0.0299472 0.0028600 0.0023657
  10 h     dx -0.0119191-0.0023745 0.0287724 0.0011887-0.0004254-0.0005408
           dy  0.0017793 0.0023037-0.0032885-0.0005094-0.0037672-0.0005240
           dz -0.0026747-0.0000738 0.0044306 0.0004571-0.0006387 0.0007510
  11 c     dx -0.0225530 0.0064647-0.0323491-0.0059279 0.0014085 0.0001445
           dy  0.0126170 0.0046205-0.0001673 0.0011340 0.0074697 0.0006956
           dz -0.0758636 0.0043163 0.0274466 0.0012662 0.0005788 0.0020065
  12 h     dx  0.0010621 0.0010186-0.0030686-0.0006680 0.0000709 0.0001743
           dy  0.0009255 0.0073348 0.0020844 0.0003078 0.0002263 0.0000111
           dz -0.0019275 0.0018511-0.0048577-0.0015560 0.0001772-0.0000217
  13 h     dx -0.0000057 0.0000047 0.0000175-0.0000076 0.0000013 0.0000044
           dy  0.0000495-0.0000061-0.0000750 0.0000013 0.0000125-0.0000240
           dz  0.0000064 0.0000163 0.0000676 0.0000044-0.0000240 0.0000201
  14 h     dx -0.0000062 0.0000080-0.0000215 0.0000049 0.0000019-0.0000050
           dy  0.0000172 0.0000017 0.0000018-0.0000002 0.0000074-0.0000140
           dz  0.0000074 0.0000233-0.0000014-0.0000018-0.0000240 0.0000123
  15 c     dx -0.0003999-0.0002294 0.0001109-0.0000051 0.0000497 0.0000060
           dy -0.0002291 0.0000795 0.0001803 0.0000046-0.0000053 0.0000164
           dz  0.0001105 0.0001800-0.0001783 0.0000174-0.0000746 0.0000679
  16 c     dx  0.0001666 0.0002243-0.0001032 0.0000125-0.0000489 0.0000080
           dy -0.0001835-0.0000326 0.0000791-0.0000008-0.0000040 0.0000178
           dz  0.0002190 0.0002225-0.0001252 0.0000305-0.0000845 0.0000492
  17 c     dx -0.0001265 0.0001462 0.0000197-0.0000623 0.0000674-0.0000198
           dy  0.0002176 0.0002332-0.0001623-0.0000001 0.0000102 0.0000099
           dz  0.0000500-0.0000853-0.0000985-0.0000121 0.0000514-0.0000337
  18 c     dx  0.0000179 0.0002018 0.0000579-0.0000002-0.0000670 0.0000268
           dy  0.0001441 0.0001378-0.0001275 0.0000166-0.0000003-0.0000090
           dz -0.0004116-0.0004850 0.0000008-0.0000051 0.0000724-0.0000467
  19 h     dx  0.0000317 0.0000210 0.0000121 0.0000082-0.0000253 0.0000217
           dy  0.0000216-0.0000688-0.0000357-0.0000219 0.0000262-0.0000274
           dz -0.0000702-0.0000042-0.0000469-0.0000054 0.0000010 0.0000068
  20 h     dx  0.0000173-0.0000193 0.0000046-0.0000105 0.0000203 0.0000050
           dy  0.0000396-0.0000188 0.0000203-0.0000093 0.0000063 0.0000021
           dz  0.0000059-0.0000026 0.0000307 0.0000085-0.0000018-0.0000066
  21 c     dx -0.0001671-0.0001965-0.0000032 0.0000612-0.0000532 0.0000133
           dy -0.0003190-0.0005939-0.0000534-0.0000090 0.0001126-0.0000329
           dz -0.0002015-0.0002304 0.0000367-0.0000634 0.0000766-0.0000085
  22 c     dx -0.0000160-0.0003481 0.0001205 0.0000140 0.0001067-0.0000530
           dy -0.0005748-0.0005952-0.0001116 0.0000191 0.0001065-0.0000477
           dz  0.0001832 0.0002191 0.0003863 0.0000355 0.0000140-0.0000524
  23 h     dx  0.0000445-0.0000953-0.0000085-0.0000374 0.0001039-0.0000510
           dy  0.0000905-0.0000236 0.0000255 0.0000386-0.0000990 0.0000379
           dz  0.0001604 0.0001397 0.0001483 0.0000043-0.0000430 0.0000102
  24 h     dx -0.0000122 0.0000838-0.0000810 0.0000054-0.0001039 0.0000629
           dy  0.0000493 0.0000971-0.0000496-0.0000266-0.0000891 0.0000667
           dz  0.0000227 0.0000515-0.0000374-0.0000254-0.0000573 0.0000602

   ATOM              9 c                          10 h 
                  dx        dy        dz        dx        dy        dz
   9 c     dx  0.6783959
           dy -0.0478849 0.1412690
           dz -0.0389528-0.0716925 0.7018451
  10 h     dx -0.1392550-0.0062543 0.1243283 0.1447422
           dy -0.0063012-0.0362510 0.0165226 0.0061515 0.0268890
           dz  0.1242743 0.0163317-0.2510951-0.1347574-0.0185475 0.2659252
  11 c     dx -0.1681775 0.0256691-0.1125624 0.0116451-0.0033726 0.0179749
           dy  0.0172583-0.0638834 0.0409676 0.0008219 0.0014092 0.0009493
           dz -0.0504399 0.0349679-0.2846968-0.0135364 0.0038762-0.0187172
  12 h     dx -0.0105656 0.0008743 0.0022239 0.0008591-0.0003931-0.0003886
           dy  0.0050601 0.0011746-0.0005471-0.0005338-0.0035959-0.0005966
           dz -0.0292641 0.0025293 0.0037276 0.0006032-0.0006727 0.0010592
  13 h     dx  0.0000122-0.0000006 0.0000304 0.0000049-0.0000002-0.0000018
           dy -0.0000489-0.0000044-0.0000848 0.0000019 0.0000074-0.0000241
           dz  0.0000081 0.0000179 0.0000491-0.0000051-0.0000140 0.0000123
  14 h     dx  0.0000044-0.0000022-0.0000283 0.0000030 0.0000090-0.0000028
           dy  0.0000321 0.0000028-0.0000074 0.0000090 0.0000055-0.0000067
           dz -0.0000273 0.0000091 0.0000180-0.0000028-0.0000067-0.0000011
  15 c     dx  0.0001680-0.0001825 0.0002196-0.0000059 0.0000166 0.0000075
           dy  0.0002233-0.0000333 0.0002214 0.0000078 0.0000022 0.0000233
           dz -0.0001037 0.0000771-0.0001272-0.0000216 0.0000023-0.0000015
  16 c     dx -0.0003751-0.0000623-0.0004157 0.0000048 0.0000320-0.0000273
           dy -0.0000598-0.0000675 0.0001127-0.0000021 0.0000032 0.0000090
           dz -0.0004166 0.0001124-0.0001563-0.0000281-0.0000071 0.0000180
  17 c     dx  0.0000807 0.0000299 0.0001199 0.0000290 0.0000106 0.0000093
           dy -0.0000531 0.0002324-0.0001432-0.0000105-0.0000120 0.0000030
           dz  0.0001028-0.0000207-0.0000820-0.0000240-0.0000325 0.0000210
  18 c     dx -0.0000961 0.0000446-0.0000958 0.0000178 0.0000138-0.0000192
           dy -0.0002037-0.0000265-0.0001260-0.0000258-0.0000008 0.0000126
           dz  0.0007049 0.0000207 0.0003709 0.0000004-0.0000140 0.0000231
  19 h     dx -0.0000726 0.0000409-0.0001161 0.0000021 0.0000003 0.0000072
           dy  0.0000522 0.0000677 0.0002029 0.0000071-0.0000094-0.0000207
           dz -0.0000078-0.0000503-0.0000433 0.0000075 0.0000341-0.0000301
  20 h     dx  0.0000319-0.0000292-0.0000181 0.0000130 0.0000119-0.0000014
           dy  0.0000154-0.0000083-0.0000034 0.0000135 0.0000007-0.0000062
           dz  0.0000063 0.0000092 0.0000114-0.0000010-0.0000076 0.0000054
  21 c     dx -0.0000295-0.0002985-0.0000216-0.0000691-0.0000484 0.0000250
           dy -0.0000584-0.0006545-0.0000358 0.0000306 0.0000710 0.0000166
           dz  0.0000632-0.0001421 0.0000434 0.0001019 0.0001489-0.0000887
  22 c     dx  0.0003273 0.0001597 0.0002297 0.0000168-0.0000121 0.0000115
           dy  0.0005747-0.0000472 0.0001857-0.0000097-0.0000007 0.0000097
           dz -0.0001643 0.0000263-0.0001034 0.0000000-0.0000479 0.0000156
  23 h     dx  0.0000713-0.0001123-0.0000447 0.0000082-0.0000037 0.0000211
           dy -0.0000821 0.0000688 0.0000946-0.0000380-0.0000542 0.0000123
           dz -0.0001023 0.0001910 0.0001403-0.0000204-0.0000657 0.0000267
  24 h     dx -0.0000424 0.0000250 0.0000036-0.0000140-0.0000035-0.0000017
           dy -0.0000769 0.0000109 0.0000232 0.0000126 0.0000088-0.0000115
           dz -0.0000618 0.0000015-0.0000002 0.0000094 0.0000098-0.0000049

   ATOM             11 c                          12 h 
                  dx        dy        dz        dx        dy        dz
  11 c     dx  0.7269283
           dy -0.0567430 0.1420914
           dz -0.0044819-0.0689127 0.6529155
  12 h     dx -0.3291059 0.0298141-0.0102495 0.3504463
           dy  0.0295597-0.0380398 0.0042596-0.0328664 0.0288233
           dz -0.0102651 0.0042142-0.0593372 0.0110323-0.0053882 0.0581460
  13 h     dx -0.0000001 0.0000166-0.0000057-0.0000106-0.0000093 0.0000084
           dy -0.0000672-0.0000003 0.0000720 0.0000203 0.0000064-0.0000017
           dz  0.0000266-0.0000089-0.0000464 0.0000051 0.0000021-0.0000066
  14 h     dx  0.0000176-0.0000261 0.0000003 0.0000131 0.0000135-0.0000010
           dy  0.0000139-0.0000009-0.0000139 0.0000119 0.0000006-0.0000076
           dz -0.0000192 0.0000127 0.0000229-0.0000014-0.0000062 0.0000054
  15 c     dx  0.0000175 0.0001436-0.0004133 0.0000179 0.0000400 0.0000059
           dy  0.0002010 0.0001369-0.0004833-0.0000193-0.0000187-0.0000026
           dz  0.0000581-0.0001307 0.0000018 0.0000048 0.0000207 0.0000308
  16 c     dx -0.0000970-0.0002040 0.0007056 0.0000320 0.0000153 0.0000062
           dy  0.0000455-0.0000266 0.0000189-0.0000290-0.0000085 0.0000091
           dz -0.0000962-0.0001264 0.0003706-0.0000181-0.0000035 0.0000112
  17 c     dx -0.0000577-0.0001892 0.0000579-0.0001547-0.0001198 0.0000043
           dy -0.0000696-0.0007407-0.0001654 0.0000465 0.0001019-0.0000007
           dz  0.0000434 0.0001158 0.0000232-0.0000226-0.0000127-0.0000286
  18 c     dx  0.0001154-0.0001364-0.0000618 0.0000430 0.0000225-0.0000002
           dy -0.0001348-0.0000488 0.0001181-0.0000170 0.0000007 0.0000037
           dz -0.0000625 0.0001184-0.0007176-0.0000059-0.0000080-0.0000226
  19 h     dx  0.0001297-0.0002452-0.0000796 0.0000173 0.0000366 0.0000036
           dy -0.0001874 0.0001328 0.0000435-0.0000514-0.0000660-0.0000025
           dz -0.0000034-0.0000098 0.0000341 0.0000186 0.0000093 0.0000269
  20 h     dx  0.0000430-0.0000172-0.0000060 0.0000061 0.0000106 0.0000001
           dy  0.0000225 0.0000009-0.0000080 0.0000106 0.0000022-0.0000003
           dz -0.0000004 0.0000038-0.0000225 0.0000001-0.0000003-0.0000027
  21 c     dx -0.0000671 0.0001705 0.0000215 0.0000353 0.0000302-0.0000122
           dy  0.0001363 0.0001714 0.0001791-0.0000185-0.0000153-0.0000021
           dz  0.0000272 0.0000171 0.0001745 0.0000046-0.0000072 0.0000204
  22 c     dx -0.0000826-0.0001029-0.0004110 0.0000067 0.0000133-0.0000100
           dy -0.0000482 0.0000800-0.0003138-0.0000217 0.0000101-0.0000114
           dz  0.0000374 0.0000889 0.0000936 0.0000097-0.0000063-0.0000193
  23 h     dx  0.0000044 0.0000731 0.0000421-0.0000238-0.0000194-0.0000179
           dy -0.0000919 0.0000891-0.0001144 0.0000282-0.0000037 0.0000078
           dz -0.0000781 0.0000812-0.0001546-0.0000065-0.0000189-0.0000050
  24 h     dx  0.0000243-0.0000270 0.0000124 0.0000171 0.0000082 0.0000055
           dy  0.0000202-0.0000270 0.0000710 0.0000160-0.0000025 0.0000107
           dz  0.0000379-0.0000336 0.0000521 0.0000098 0.0000055 0.0000088

   ATOM             13 h                          14 h 
                  dx        dy        dz        dx        dy        dz
  13 h     dx  0.1192042
           dy -0.0236922 0.0331993
           dz  0.1176464-0.0440475 0.2856956
  14 h     dx  0.0011906-0.0004166-0.0005407 0.1446681
           dy -0.0005018-0.0037649-0.0005315 0.0065517 0.0269582
           dz  0.0004574-0.0006447 0.0007492-0.1347095-0.0191434 0.2659643
  15 c     dx -0.1156191 0.0209177-0.1087163-0.0119120 0.0017610-0.0026677
           dy  0.0212331-0.0429891 0.0397940-0.0024425 0.0023066-0.0000807
           dz -0.1087023 0.0397736-0.2693763 0.0287802-0.0032413 0.0044197
  16 c     dx -0.0092608 0.0009253 0.0016319-0.1391850-0.0066618 0.1242320
           dy  0.0048546 0.0017588-0.0001403-0.0066147-0.0363137 0.0168734
           dz -0.0299439 0.0028099 0.0023765 0.1242858 0.0170613-0.2511329
  17 c     dx  0.0118461 0.0011797-0.0151015-0.0057916 0.0012742-0.0006135
           dy -0.0029508 0.0023769 0.0040767 0.0014503 0.0072663 0.0008294
           dz  0.0164079 0.0011913-0.0188992-0.0017129 0.0010364 0.0018862
  18 c     dx -0.0059323 0.0013845 0.0001469 0.0116503-0.0033846 0.0179611
           dy  0.0011096 0.0074692 0.0007038 0.0008597 0.0013969 0.0010091
           dz  0.0012692 0.0005879 0.0020077-0.0135501 0.0038875-0.0187137
  19 h     dx  0.0009042-0.0003577 0.0002419-0.0007849 0.0001303-0.0002261
           dy -0.0003288-0.0037880-0.0006605-0.0000807 0.0002670 0.0000345
           dz -0.0007219-0.0005776 0.0010436 0.0015026-0.0001359 0.0000761
  20 h     dx -0.0006690 0.0000692 0.0001745 0.0008607-0.0003853-0.0003882
           dy  0.0003087 0.0002270 0.0000116-0.0005272-0.0035951-0.0006041
           dz -0.0015556 0.0001750-0.0000211 0.0006037-0.0006787 0.0010573
  21 c     dx -0.0012615 0.0002410 0.0045667-0.0007177 0.0001301-0.0009355
           dy  0.0002953 0.0073378 0.0009533 0.0001214-0.0008152-0.0000455
           dz  0.0034977 0.0011435-0.0027575-0.0009424-0.0000136 0.0001726
  22 c     dx -0.0008962-0.0002354 0.0008457-0.0004814 0.0012923-0.0041725
           dy -0.0000893-0.0007791-0.0002279 0.0011505 0.0073294 0.0018430
           dz  0.0008375-0.0002396 0.0002765-0.0030323 0.0017165-0.0033212
  23 h     dx  0.0004185 0.0000609-0.0007984 0.0000761-0.0001169 0.0000903
           dy -0.0001252 0.0001793 0.0002290-0.0001433-0.0012912-0.0001860
           dz  0.0009316 0.0000898-0.0011198 0.0000883-0.0002030-0.0000387
  24 h     dx  0.0000926-0.0001280-0.0001164 0.0004160-0.0001166 0.0009450
           dy -0.0001253-0.0013117-0.0001566 0.0000951 0.0002349 0.0000976
           dz -0.0001106-0.0001648-0.0000539-0.0007888 0.0002476-0.0011147

   ATOM             15 c                          16 c 
                  dx        dy        dz        dx        dy        dz
  15 c     dx  0.6732102
           dy -0.0520577 0.1458665
           dz  0.0225053-0.0772946 0.7073296
  16 c     dx -0.3326069 0.0311444-0.0384353 0.6786065
           dy  0.0228425-0.0621024 0.0128307-0.0469633 0.1412804
           dz  0.0239866 0.0063543-0.1256996-0.0389146-0.0725956 0.7016878
  17 c     dx -0.1873632-0.0056941 0.1265545-0.0330099 0.0004660 0.0273133
           dy  0.0024176-0.0626762 0.0165872-0.0061403 0.0086535-0.0062857
           dz  0.0635224 0.0227498-0.2716009 0.0703990-0.0110693 0.0356513
  18 c     dx -0.0226188 0.0064828-0.0323273-0.1682969 0.0256860-0.1126299
           dy  0.0126877 0.0046469-0.0002486 0.0171865-0.0639127 0.0411061
           dz -0.0758408 0.0041666 0.0274842-0.0505104 0.0352142-0.2845554
  19 h     dx -0.0130369 0.0017003-0.0035442 0.0004372-0.0000107 0.0036923
           dy -0.0021186 0.0028918-0.0001160 0.0003494 0.0070746 0.0011057
           dz  0.0280224-0.0027516 0.0056572 0.0026470 0.0012855-0.0044375
  20 h     dx  0.0010578 0.0010137-0.0030723-0.0105820 0.0008514 0.0022305
           dy  0.0009182 0.0073345 0.0020957 0.0050817 0.0011764-0.0005481
           dz -0.0019307 0.0018664-0.0048503-0.0292560 0.0024753 0.0037381
  21 c     dx  0.0623891-0.0033338-0.0164387-0.0456461 0.0074953-0.0297285
           dy -0.0086591 0.0067203 0.0103635 0.0074626-0.0094589 0.0037166
           dz  0.0268208 0.0051765-0.0568555-0.0291168 0.0041045-0.0180397
  22 c     dx -0.0516153 0.0012073 0.0267803 0.0613865-0.0087225 0.0273050
           dy  0.0009588-0.0075172-0.0018136-0.0030830 0.0054772 0.0056966
           dz  0.0274860-0.0016784-0.0136567-0.0163540 0.0098394-0.0571522
  23 h     dx -0.0005162 0.0010275-0.0030753-0.0006837 0.0001233-0.0009235
           dy  0.0012117 0.0070481 0.0016162 0.0001152-0.0006448 0.0000245
           dz -0.0040777 0.0018834-0.0033352-0.0009357-0.0000307 0.0001482
  24 h     dx -0.0009151-0.0000806 0.0008494-0.0012462 0.0003614 0.0034612
           dy -0.0002074-0.0007645-0.0002418 0.0002582 0.0074428 0.0011144
           dz  0.0008102-0.0002262 0.0003016 0.0046113 0.0009656-0.0027072

   ATOM             17 c                          18 c 
                  dx        dy        dz        dx        dy        dz
  17 c     dx  0.7317804
           dy -0.0498250 0.1472859
           dz -0.0018951-0.0697803 0.6546214
  18 c     dx  0.0004284-0.0006545 0.0031320 0.7271028
           dy -0.0010566-0.0091537 0.0073140-0.0558167 0.1420397
           dz  0.0036057 0.0074675-0.0643885-0.0044433-0.0696917 0.6526969
  19 h     dx -0.3322173 0.0251402-0.0106301 0.0007313-0.0001256 0.0000678
           dy  0.0241587-0.0384423 0.0040180-0.0002430-0.0006544 0.0000170
           dz -0.0106203 0.0039846-0.0593520 0.0000586 0.0000795-0.0012936
  20 h     dx  0.0007427-0.0001519 0.0000980-0.3291991 0.0293453-0.0101464
           dy -0.0002516-0.0007794-0.0000003 0.0290943-0.0379468 0.0042708
           dz  0.0000867 0.0000570-0.0013260-0.0101628 0.0042240-0.0593193
  21 c     dx -0.1700512 0.0158439-0.0509230-0.0330736-0.0052064 0.0705867
           dy  0.0249357-0.0681201 0.0359711 0.0000004 0.0086812-0.0102729
           dz -0.1145146 0.0411720-0.2874544 0.0271634-0.0061712 0.0358277
  22 c     dx -0.0217508 0.0123976-0.0759925-0.1868959 0.0033835 0.0643607
           dy  0.0070067 0.0059227 0.0048576-0.0050071-0.0613080 0.0229140
           dz -0.0328411-0.0002591 0.0279700 0.1267833 0.0163200-0.2725387
  23 h     dx  0.0117179 0.0012047-0.0135703-0.0057329 0.0013546-0.0017315
           dy -0.0032962 0.0026238 0.0041334 0.0013524 0.0069631 0.0009580
           dz  0.0179567 0.0015855-0.0187354-0.0006207 0.0009248 0.0018359
  24 h     dx -0.0059861 0.0010654 0.0012062 0.0117839-0.0031977 0.0164714
           dy  0.0013398 0.0072977 0.0005718 0.0012572 0.0019838 0.0010797
           dz  0.0001654 0.0007439 0.0019921-0.0150335 0.0043015-0.0188737

   ATOM             19 h                          20 h 
                  dx        dy        dz        dx        dy        dz
  19 h     dx  0.3533907
           dy -0.0274534 0.0278263
           dz  0.0114636-0.0052020 0.0584518
  20 h     dx -0.0000859-0.0001088-0.0000281 0.3505507
           dy -0.0000814-0.0012979-0.0001979-0.0323479 0.0287305
           dz -0.0000207-0.0001877 0.0001305 0.0109201-0.0054063 0.0581246
  21 c     dx -0.0105647 0.0051811-0.0294010 0.0004400 0.0002528 0.0026791
           dy  0.0007899 0.0025889 0.0022430 0.0001435 0.0073223 0.0013285
           dz  0.0021286-0.0003590 0.0036207 0.0037954 0.0011764-0.0044328
  22 c     dx  0.0010031 0.0009367-0.0019598-0.0132200-0.0020521 0.0278932
           dy  0.0008486 0.0070386 0.0018670 0.0019376 0.0022897-0.0031513
           dz -0.0030077 0.0021174-0.0048166-0.0035926-0.0001204 0.0057556
  23 h     dx  0.0008718-0.0004838 0.0005770-0.0008017-0.0000753 0.0014924
           dy -0.0003150-0.0038517-0.0007028 0.0001454 0.0002616-0.0001227
           dz -0.0003335-0.0007122 0.0010507-0.0002347 0.0000513 0.0000973
  24 h     dx -0.0006598 0.0003106-0.0015560 0.0009062-0.0003613-0.0007421
           dy  0.0000475 0.0001591 0.0001930-0.0004888-0.0037302-0.0005819
           dz  0.0001624 0.0000138-0.0000230 0.0002457-0.0007030 0.0010270

   ATOM             21 c                          22 c 
                  dx        dy        dz        dx        dy        dz
  21 c     dx  0.6798399
           dy -0.0426856 0.1486800
           dz -0.0388648-0.0767622 0.7052048
  22 c     dx -0.3315251 0.0215372 0.0243882 0.6712647
           dy  0.0304467-0.0641481 0.0064613-0.0536873 0.1471237
           dz -0.0384138 0.0130069-0.1259529 0.0211515-0.0807920 0.7074181
  23 h     dx -0.1404481-0.0091377 0.1254299-0.0120542-0.0027553 0.0286429
           dy -0.0095630-0.0384626 0.0208938 0.0018739 0.0029464-0.0030512
           dz  0.1251392 0.0200925-0.2513678-0.0028000 0.0000225 0.0046206
  24 h     dx -0.0091271 0.0052633-0.0298896-0.1150917 0.0225254-0.1080011
           dy  0.0008697 0.0021246 0.0029327 0.0223136-0.0438111 0.0426689
           dz  0.0015303-0.0001039 0.0023500-0.1080185 0.0424912-0.2686994

   ATOM             23 h                          24 h 
                  dx        dy        dz        dx        dy        dz
  23 h     dx  0.1460227
           dy  0.0092133 0.0279310
           dz -0.1355613-0.0232854 0.2660095
  24 h     dx  0.0011984-0.0005216 0.0004323 0.1185769
           dy -0.0003511-0.0037459-0.0007579-0.0251016 0.0340719
           dz -0.0005086-0.0005911 0.0007130 0.1168830-0.0469754 0.2850592
 

   *** projected hessian written onto $hessian (projected), file=<hessian> ***

 dipole moment in principle axis system (a.u.) :
    -0.0003002608     0.0003886265     0.0001578083
 norm :  5.158396401253946E-004

 rotational constants b for rotations around axis of inertia
 and optical intensities for (1 <-- 0) transition

   b   :     0.0208122781     0.0545844073     0.0220121017   (cm**(-1))
   b   :         623.9364        1636.3994         659.9062     (MHz)
  int. :     0.0000000902     0.0000001510     0.0000000249     (a.u.)

   x   :     0.6932320911     0.5844749095     0.4216851291
   y   :    -0.5786312148     0.8001721248    -0.1578305674
   z   :    -0.4296686923    -0.1345869643     0.8929004222

   ***  normal modes written onto $vibrational normal modes, file=<vib_normal_modes>  ***

   ***  vibrational spectroscopic data written onto$vibrational spectrum   
        file=<vibspectrum>  ***

          ---------------------------------------------------
          NORMAL MODES and VIBRATIONAL FREQUENCIES (cm**(-1))
          ---------------------------------------------------

 imaginary wave numbers indicate a negative curvature of the energy surface.
 zero frequency modes have no physical meaning except being generators of
 translations and rotations. each vibrational normal mode - given in terms of
 cartesian displacement vectors of all atoms - has been normalized to unity.
 to obtain mass-weigthed normal coordinates in a.u. divide the tabulated
 modes by sqrt(reduced mass * 1822.88853).
 band intensities or cross sections refer to independent non-degenerate normal
 modes, that is, the intensities of degenerate modes have yet to be added.
 dDIP/dQ is the normal mode derivative of the dipole moment.

 WARNING: values of IR intensities are questionable for saddle point structures


       mode               1        2        3        4        5        6

     frequency         i19.95     0.00     0.00     0.00     0.00     0.00

     symmetry            a                                                

        IR               YES       -        -        -        -        - 
|dDIP/dQ|   (a.u.)     0.0000   0.0000   0.0000   0.0000   0.0000   0.0000
intensity (km/mol)       0.00     0.00     0.00     0.00     0.00     0.00
intensity (  %   )       0.00     0.00     0.00     0.00     0.00     0.00
 
       RAMAN             YES       -        -        -        -        - 
 
  1   h           x  -0.22373 -0.14088 -0.06721  0.14967 -0.03542 -0.07214
                  y   0.00924  0.09118 -0.22782 -0.05706  0.18663  0.02162
                  z   0.11614  0.01472  0.08014 -0.24327 -0.01961 -0.09589
  2   c           x  -0.12613 -0.08147 -0.03163  0.07961 -0.00048 -0.04935
                  y   0.00563  0.07123 -0.16503 -0.02550  0.14846 -0.04564
                  z   0.06520 -0.01961  0.07352 -0.20130 -0.04473 -0.12018
  3   c           x  -0.11859 -0.08210 -0.02241  0.07724  0.00552 -0.04741
                  y   0.02449  0.02722 -0.08486 -0.00640  0.18894 -0.04275
                  z  -0.07487 -0.11486  0.04138 -0.09239 -0.09522 -0.16214
  4   h           x  -0.21040 -0.14157 -0.05120  0.14515 -0.02493 -0.06868
                  y   0.04328  0.01285 -0.08505 -0.02301  0.25853  0.02658
                  z  -0.13298 -0.15476  0.02264 -0.04968 -0.10900 -0.16998
  5   c           x   0.00726 -0.00566  0.02285 -0.01274  0.05015 -0.01820
                  y   0.01940  0.00159 -0.00424  0.03410  0.13999 -0.12906
                  z  -0.14068 -0.15893  0.03259 -0.03866 -0.12708 -0.19281
  6   h           x   0.01300 -0.00563  0.02925 -0.01485  0.05440 -0.01674
                  y   0.03570 -0.03271  0.05828  0.04901  0.17149 -0.12687
                  z  -0.24957 -0.23311  0.00701  0.04584 -0.16562 -0.22446
  7   c           x   0.12525  0.07149  0.05892 -0.10043  0.08880  0.00910
                  y  -0.00603  0.01995 -0.00373  0.05554  0.05052 -0.21833
                  z  -0.06649 -0.10778  0.05593 -0.09378 -0.10848 -0.18152
  8   h           x   0.22273  0.13131  0.09390 -0.17069  0.12342  0.03186
                  y  -0.00943 -0.00007  0.05922  0.08715  0.01236 -0.28565
                  z  -0.11754 -0.14219  0.04884 -0.05194 -0.13303 -0.20503
  9   c           x   0.11788  0.07231  0.04957 -0.09819  0.08275  0.00719
                  y  -0.02520  0.06393 -0.08382  0.03649  0.00997 -0.22132
                  z   0.07373 -0.01254  0.08795 -0.20272 -0.05784 -0.13935
 10   h           x   0.20974  0.13252  0.07755 -0.16657  0.11280  0.02846
                  y  -0.04489  0.07822 -0.08338  0.05321 -0.05975 -0.29090
                  z   0.13169  0.02730  0.10603 -0.24571 -0.04322 -0.13038
 11   c           x  -0.00783 -0.00424  0.00425 -0.00808  0.03807 -0.02207
                  y  -0.01829  0.08960 -0.16454 -0.00407  0.05899 -0.13489
                  z   0.13986  0.03158  0.09675 -0.25653 -0.02594 -0.10865
 12   h           x  -0.01359 -0.00366 -0.00307 -0.00628  0.03332 -0.02358
                  y  -0.03296  0.12387 -0.22698 -0.01894  0.02745 -0.13716
                  z   0.24932  0.10578  0.12169 -0.34142  0.01353 -0.07578
 13   h           x   0.22186 -0.05305 -0.26611  0.12789 -0.15070 -0.09545
                  y  -0.01471  0.03353 -0.13288 -0.04077  0.26119  0.05154
                  z  -0.11675 -0.09689 -0.09511 -0.19159  0.11365  0.10940
 14   h           x   0.20935 -0.05420 -0.25001  0.12379 -0.14023 -0.09209
                  y  -0.04704 -0.04477  0.00970 -0.00685  0.33337  0.05686
                  z   0.13170 -0.26639 -0.15247  0.00210  0.02405  0.03504
 15   c           x   0.12506  0.00672 -0.23111  0.05767 -0.11607 -0.07270
                  y  -0.00899  0.01350 -0.06992 -0.00916  0.22308 -0.01575
                  z  -0.06558 -0.13135 -0.10220 -0.14969  0.08905  0.08583
 16   c           x   0.11798  0.00593 -0.22190  0.05545 -0.11011 -0.07081
                  y  -0.02641 -0.03049  0.01016  0.00988  0.26366 -0.01272
                  z   0.07421 -0.22658 -0.13431 -0.04079  0.03853  0.04382
 17   c           x   0.00769  0.08379 -0.19487 -0.02999 -0.07732 -0.04538
                  y   0.01763  0.03184 -0.06938  0.01229  0.13361 -0.10503
                  z  -0.13917 -0.08024 -0.07876 -0.20471  0.10748  0.09689
 18   c           x  -0.00683  0.08243 -0.17655 -0.03461 -0.06542 -0.04156
                  y  -0.01663 -0.05617  0.09090  0.05043  0.21469 -0.09911
                  z   0.14049 -0.27076 -0.14309  0.01309  0.00656  0.01305
 19   h           x   0.01322  0.08374 -0.20116 -0.02789 -0.08151 -0.04682
                  y   0.03249  0.06615 -0.13190 -0.00261  0.10208 -0.10725
                  z  -0.24771 -0.00606 -0.05312 -0.28917  0.14592  0.12842
 20   h           x  -0.01239  0.08187 -0.16934 -0.03641 -0.06074 -0.04006
                  y  -0.02998 -0.09045  0.15334  0.06530  0.24626 -0.09681
                  z   0.24960 -0.34497 -0.16810  0.09794 -0.03281 -0.01970
 21   c           x  -0.11723  0.16017 -0.14958 -0.11992 -0.03269 -0.01617
                  y   0.02571  0.00620  0.01125  0.05279  0.08471 -0.19130
                  z  -0.07319 -0.12435 -0.08754 -0.15090  0.07555  0.06615
 22   c           x  -0.12450  0.15957 -0.14050 -0.12228 -0.02677 -0.01426
                  y   0.00855 -0.03782  0.09142  0.07187  0.12523 -0.18836
                  z   0.06644 -0.21962 -0.11976 -0.04203  0.02517  0.02434
 23   h           x  -0.20852  0.21957 -0.12066 -0.18780 -0.00216  0.00511
                  y   0.04555  0.02055  0.01147  0.06939  0.01513 -0.26063
                  z  -0.13078 -0.08449 -0.06873 -0.19352  0.08918  0.07381
 24   h           x  -0.22137  0.21893 -0.10489 -0.19230  0.00818  0.00853
                  y   0.01450 -0.05779  0.15422  0.10343  0.08710 -0.25560
                  z   0.11752 -0.25398 -0.12638  0.00000  0.00000  0.00000

reduced mass(g/mol)     3.654    5.162    5.658    4.795    5.588    5.572


       mode               7        8        9       10       11       12

     frequency           0.00     7.16    44.67    45.72    66.64    83.16

     symmetry                     a        a        a        a        a   

        IR                -       YES      YES      YES      YES      YES
|dDIP/dQ|   (a.u.)     0.0000   0.0000   0.0003   0.0003   0.0002   0.0000
intensity (km/mol)       0.00     0.00     0.14     0.15     0.09     0.00
intensity (  %   )       0.00     0.00     0.06     0.06     0.04     0.00
 
       RAMAN              -       YES      YES      YES      YES      YES
 
  1   h           x   0.24572  0.13641 -0.06375 -0.06329 -0.03844 -0.00018
                  y  -0.14238  0.29881 -0.03176 -0.07474 -0.35329 -0.11250
                  z  -0.02121  0.07643  0.03039  0.02147 -0.04499 -0.01919
  2   c           x   0.24554  0.09484 -0.06640 -0.06431 -0.02092 -0.00140
                  y  -0.11377  0.16481 -0.04604 -0.06809 -0.19734 -0.11664
                  z  -0.01578  0.07276  0.02908  0.02330 -0.02501 -0.01941
  3   c           x   0.25149  0.08435 -0.07257 -0.04498 -0.01230 -0.01422
                  y  -0.04863  0.07348 -0.11173  0.13811 -0.11188 -0.24811
                  z  -0.00260  0.10136  0.02170  0.05472 -0.01710 -0.03603
  4   h           x   0.25591  0.11762 -0.07488 -0.02893 -0.02334 -0.02253
                  y  -0.02643  0.13561 -0.14884  0.29468 -0.20075 -0.35157
                  z   0.00219  0.12859  0.01679  0.07896 -0.03227 -0.05089
  5   c           x   0.25092  0.03159 -0.07559 -0.04807  0.00791 -0.01513
                  y  -0.01188 -0.09556 -0.13119  0.14399  0.07952 -0.25832
                  z   0.00433  0.09792  0.01992  0.05742  0.00705 -0.03614
  6   h           x   0.25487  0.02432 -0.07975 -0.03524  0.01320 -0.02385
                  y   0.03890 -0.17112 -0.18476  0.30762  0.14579 -0.37150
                  z   0.01452  0.12115  0.01450  0.08180  0.01185 -0.05052
  7   c           x   0.24439 -0.01011 -0.07283 -0.06983  0.02150 -0.00373
                  y  -0.04024 -0.17222 -0.08542 -0.05560  0.19503 -0.13633
                  z  -0.00190  0.06596  0.02516  0.02910  0.02382 -0.02051
  8   h           x   0.24367 -0.05087 -0.07534 -0.07319  0.03844 -0.00499
                  y  -0.01153 -0.30549 -0.10245 -0.05295  0.34986 -0.14821
                  z   0.00348  0.06389  0.02349  0.03138  0.04214 -0.02201
  9   c           x   0.23829  0.00037 -0.06667 -0.08980  0.01384  0.00931
                  y  -0.10535 -0.08008 -0.01834 -0.26158  0.11404  0.00075
                  z  -0.01509  0.03691  0.03265 -0.00189  0.01651 -0.00408
 10   h           x   0.23308 -0.03224 -0.06416 -0.10774  0.02435  0.01822
                  y  -0.12743 -0.13961  0.01690 -0.41893  0.20500  0.09893
                  z  -0.01996  0.01178  0.03670 -0.02430  0.02959  0.00842
 11   c           x   0.23886  0.05280 -0.06353 -0.08681 -0.00754  0.01095
                  y  -0.14215  0.08728  0.00130 -0.26740 -0.08416  0.01039
                  z  -0.02203  0.04006  0.03460 -0.00470 -0.00829 -0.00240
 12   h           x   0.23411  0.06094 -0.05855 -0.10242 -0.01396  0.02124
                  y  -0.19289  0.15860  0.05239 -0.43035 -0.15020  0.11676
                  z  -0.03231  0.01752  0.04001 -0.02880 -0.01494  0.01125
 13   h           x   0.08959  0.05508  0.07588  0.07295  0.03692  0.00417
                  y  -0.05670  0.30747  0.06107  0.10128  0.35013  0.13979
                  z  -0.02472 -0.06557 -0.03164 -0.02212  0.04367  0.02095
 14   h           x   0.10000  0.03633  0.10937  0.06130  0.02253 -0.01886
                  y   0.05921  0.13911  0.42196 -0.02535  0.19949 -0.10989
                  z  -0.00130 -0.00887  0.02399 -0.03690  0.03009 -0.01022
 15   c           x   0.08890  0.01247  0.07230  0.07056  0.02030  0.00329
                  y  -0.02797  0.17327  0.06164  0.08329  0.19581  0.13168
                  z  -0.01933 -0.06691 -0.02960 -0.02403  0.02516  0.01991
 16   c           x   0.09490  0.00192  0.09168  0.06411  0.01248 -0.00966
                  y   0.03715  0.07978  0.26479  0.01210  0.11162 -0.00681
                  z  -0.00615 -0.03528  0.00136 -0.03240  0.01730  0.00307
 17   c           x   0.08251 -0.03152  0.05085  0.07366  0.00729  0.01504
                  y  -0.05631  0.09682 -0.13760  0.13172  0.08415  0.25961
                  z  -0.02555 -0.10050 -0.05820 -0.01824  0.00875  0.03652
 18   c           x   0.09437 -0.05288  0.08841  0.06108 -0.00850 -0.01084
                  y   0.07398 -0.08862  0.26801 -0.00886 -0.08594 -0.01154
                  z   0.00080 -0.03748  0.00384 -0.03465 -0.00774  0.00203
 19   h           x   0.07863 -0.02421  0.03847  0.07795  0.01266  0.02364
                  y  -0.10709  0.17346 -0.29871  0.18822  0.15292  0.37361
                  z  -0.03572 -0.12574 -0.08254 -0.01219  0.01403  0.05119
 20   h           x   0.09904 -0.06107  0.10354  0.05588 -0.01506 -0.02105
                  y   0.12472 -0.16096  0.42863 -0.06320 -0.15459 -0.11886
                  z   0.01107 -0.01292  0.02791 -0.04073 -0.01487 -0.01187
 21   c           x   0.08198 -0.08664  0.04750  0.07073 -0.01245  0.01454
                  y  -0.01953 -0.07318 -0.13421  0.11092 -0.10618  0.25390
                  z  -0.01860 -0.10298 -0.05579 -0.02033 -0.01555  0.03700
 22   c           x   0.08783 -0.09721  0.06622  0.06432 -0.02125  0.00186
                  y   0.04562 -0.16581  0.06899  0.04124 -0.19491  0.12147
                  z  -0.00544 -0.07181 -0.02443 -0.02859 -0.02405  0.02003
 23   h           x   0.07766 -0.12167  0.03172  0.07325 -0.02300  0.02308
                  y  -0.04171 -0.13502 -0.29025  0.14990 -0.19154  0.36178
                  z  -0.02338 -0.13148 -0.08019 -0.01503 -0.03031  0.05268
 24   h           x   0.08768 -0.14059  0.06496  0.06172 -0.03844  0.00100
                  y   0.07425 -0.30052  0.07366  0.02585 -0.35002  0.12112
                  z   0.00000 -0.07474 -0.02285 -0.03014 -0.04414  0.02033

reduced mass(g/mol)     6.193    4.069    4.302    4.247    3.614    4.672


       mode              13       14       15       16       17       18

     frequency         403.44   404.26   406.04   406.92   611.11   611.78

     symmetry            a        a        a        a        a        a   

        IR               YES      YES      YES      YES      YES      YES
|dDIP/dQ|   (a.u.)     0.0002   0.0001   0.0000   0.0000   0.0001   0.0000
intensity (km/mol)       0.04     0.01     0.00     0.00     0.02     0.00
intensity (  %   )       0.02     0.01     0.00     0.00     0.01     0.00
 
       RAMAN             YES      YES      YES      YES      YES      YES
 
  1   h           x   0.01013  0.03476 -0.03538  0.00235 -0.16456  0.18894
                  y   0.11372  0.34713 -0.36578  0.03743  0.01403 -0.03451
                  z   0.01555  0.04703 -0.04956  0.00532  0.03811  0.09265
  2   c           x   0.00443  0.01551 -0.01575  0.00136  0.07525  0.00581
                  y   0.05357  0.15668 -0.16662  0.01877  0.00635 -0.02614
                  z   0.00736  0.02134 -0.02260  0.00231 -0.08706  0.18955
  3   c           x   0.01056 -0.01129  0.00924  0.01202  0.04755  0.04487
                  y   0.11371 -0.12553  0.10006  0.13407  0.02129 -0.02026
                  z   0.01544 -0.01675  0.01314  0.01779 -0.20096  0.12201
  4   h           x   0.02338 -0.02452  0.01889  0.02698  0.19414 -0.17673
                  y   0.25039 -0.27186  0.22298  0.29190 -0.00282  0.01670
                  z   0.03584 -0.03823  0.03028  0.04148 -0.10659 -0.01926
  5   c           x  -0.01485 -0.00284  0.00616 -0.01383 -0.23558  0.25234
                  y  -0.16502 -0.03335  0.06965 -0.15200  0.02871 -0.02173
                  z  -0.02210 -0.00507  0.00937 -0.02060 -0.04651 -0.01314
  6   h           x  -0.03089 -0.00574  0.01301 -0.02859 -0.23945  0.24799
                  y  -0.36647 -0.06971  0.15729 -0.33822  0.01448 -0.03233
                  z  -0.04721 -0.01024  0.02247 -0.04335  0.04750  0.04389
  7   c           x   0.00507  0.01473 -0.01527  0.00145 -0.07495 -0.00640
                  y   0.04987  0.15960 -0.16752  0.01830 -0.00624  0.02479
                  z   0.00569  0.02025 -0.02163  0.00186  0.08739 -0.18952
  8   h           x   0.01158  0.03288 -0.03349  0.00476  0.16496 -0.18990
                  y   0.11287  0.34801 -0.36444  0.04267 -0.01119  0.02503
                  z   0.01319  0.04372 -0.04661  0.00446 -0.03792 -0.09360
  9   c           x   0.01107 -0.01294  0.01016  0.01274 -0.04720 -0.04445
                  y   0.11331 -0.12516  0.10037  0.13604 -0.01996  0.02007
                  z   0.01467 -0.01583  0.01290  0.01769  0.20074 -0.12154
 10   h           x   0.02409 -0.02608  0.02087  0.02763 -0.19278  0.17674
                  y   0.24037 -0.26749  0.21498  0.28997  0.00977 -0.02251
                  z   0.03178 -0.03410  0.02776  0.03792  0.10758  0.01872
 11   c           x  -0.01659 -0.00351  0.00689 -0.01500  0.23488 -0.25179
                  y  -0.16522 -0.03318  0.06881 -0.15466 -0.03050  0.02363
                  z  -0.02141 -0.00380  0.00878 -0.02054  0.04630  0.01326
 12   h           x  -0.03486 -0.00730  0.01463 -0.03208  0.23829 -0.24780
                  y  -0.35400 -0.07270  0.14942 -0.33212 -0.02046  0.02880
                  z  -0.04552 -0.00986  0.01960 -0.04363 -0.04735 -0.04499
 13   h           x   0.01152  0.03289  0.03236 -0.00432  0.16387  0.18304
                  y   0.11443  0.35416  0.35855 -0.03918 -0.01079 -0.02209
                  z   0.01360  0.04503  0.04640 -0.00411 -0.03734  0.07247
 14   h           x   0.02332 -0.02562 -0.02023 -0.02769 -0.19128 -0.17629
                  y   0.23638 -0.26719 -0.21199 -0.29559  0.00943  0.01963
                  z   0.03161 -0.03445 -0.02769 -0.03905  0.10648  0.00018
 15   c           x   0.00506  0.01471  0.01474 -0.00127 -0.07411 -0.00561
                  y   0.05055  0.16230  0.16472 -0.01661 -0.00651 -0.02164
                  z   0.00588  0.02084  0.02152 -0.00168  0.08704  0.17111
 16   c           x   0.01071 -0.01272 -0.00986 -0.01278 -0.04649  0.03013
                  y   0.11142 -0.12501 -0.09895 -0.13868 -0.02014 -0.02003
                  z   0.01458 -0.01598 -0.01286 -0.01819  0.19900  0.13102
 17   c           x  -0.01447 -0.00306 -0.00594  0.01367 -0.23394 -0.24554
                  y  -0.16383 -0.03641 -0.06832  0.15317  0.02814  0.02197
                  z  -0.02216 -0.00552 -0.00929  0.02095 -0.04590  0.00422
 18   c           x  -0.01623 -0.00373 -0.00663  0.01490  0.23323  0.24501
                  y  -0.16406 -0.03615 -0.06733  0.15587 -0.02998 -0.02374
                  z  -0.02150 -0.00424 -0.00870  0.02097  0.04567 -0.00436
 19   h           x  -0.03009 -0.00619 -0.01252  0.02824 -0.23770 -0.24246
                  y  -0.36392 -0.07645 -0.15427  0.34084  0.01391  0.02937
                  z  -0.04741 -0.01122 -0.02229  0.04415  0.04693 -0.02957
 20   h           x  -0.03405 -0.00777 -0.01408  0.03181  0.23653  0.24227
                  y  -0.35148 -0.07901 -0.14614  0.33456 -0.02004 -0.02612
                  z  -0.04571 -0.01082 -0.01940  0.04447 -0.04683  0.03044
 21   c           x   0.01023 -0.01107 -0.00896 -0.01205  0.04683 -0.03052
                  y   0.11186 -0.12546 -0.09881 -0.13677  0.02155  0.02044
                  z   0.01538 -0.01693 -0.01313 -0.01840 -0.19919 -0.13143
 22   c           x   0.00443  0.01552  0.01522 -0.00121  0.07442  0.00616
                  y   0.05434  0.15944  0.16391 -0.01751  0.00664  0.02277
                  z   0.00756  0.02196  0.02248 -0.00217 -0.08672 -0.17115
 23   h           x   0.02263 -0.02401 -0.01825 -0.02702  0.19260  0.17638
                  y   0.24636 -0.27163 -0.22011 -0.29771 -0.00227 -0.01379
                  z   0.03566 -0.03857 -0.03021 -0.04277 -0.10546  0.00042
 24   h           x   0.01015  0.03477  0.03421 -0.00205 -0.16336 -0.18226
                  y   0.11535  0.35310  0.35974 -0.03447  0.01363  0.03030
                  z   0.01595  0.04837  0.04929 -0.00495  0.03747 -0.07166

reduced mass(g/mol)     2.926    2.921    2.908    2.933    6.015    6.006


       mode              19       20       21       22       23       24

     frequency         611.80   611.98   683.33   688.75   712.80   713.83

     symmetry            a        a        a        a        a        a   

        IR               YES      YES      YES      YES      YES      YES
|dDIP/dQ|   (a.u.)     0.0001   0.0000   0.0116   0.0000   0.0000   0.0002
intensity (km/mol)       0.01     0.00   239.50     0.00     0.00     0.04
intensity (  %   )       0.01     0.00   100.00     0.00     0.00     0.02
 
       RAMAN             YES      YES      YES      YES      YES      YES
 
  1   h           x   0.07733 -0.00830 -0.02816 -0.02794  0.02401  0.02420
                  y  -0.04372 -0.03191 -0.28388 -0.28594  0.23507  0.23658
                  z   0.23018  0.21436 -0.03927 -0.03963  0.03152  0.03223
  2   c           x   0.13133  0.14653  0.00202  0.00177  0.01476  0.01436
                  y  -0.04047 -0.03285  0.02360  0.02288  0.15025  0.15126
                  z   0.20441  0.13546  0.00258  0.00258  0.02050  0.02143
  3   c           x   0.15814  0.15748  0.00210  0.00201 -0.01340 -0.01392
                  y  -0.00037  0.00883  0.02452  0.02526 -0.14751 -0.14818
                  z  -0.10048 -0.17756  0.00317  0.00353 -0.01996 -0.01900
  4   h           x  -0.00762  0.08065 -0.02509 -0.02485 -0.02551 -0.02565
                  y   0.02981  0.01907 -0.28622 -0.27999 -0.26402 -0.26708
                  z  -0.20474 -0.22532 -0.04157 -0.04037 -0.03796 -0.03709
  5   c           x   0.08000 -0.03822  0.00207  0.00179  0.01321  0.01445
                  y   0.00646  0.01749  0.02440  0.02449  0.14823  0.14846
                  z  -0.09852 -0.10576  0.00338  0.00334  0.01981  0.02005
  6   h           x   0.06652 -0.05182 -0.02340 -0.02340  0.02147  0.02320
                  y  -0.02809 -0.02042 -0.29300 -0.28825  0.25044  0.25897
                  z   0.15609  0.15633 -0.03754 -0.03687  0.03133  0.03340
  7   c           x  -0.13195 -0.14719  0.00258  0.00238 -0.01414 -0.01343
                  y   0.03803  0.03138  0.02436  0.02434 -0.14941 -0.15071
                  z  -0.20454 -0.13543  0.00363  0.00373 -0.01956 -0.01990
  8   h           x  -0.07989  0.00730 -0.02566 -0.02538 -0.02366 -0.02307
                  y   0.03163  0.02419 -0.27946 -0.27952 -0.24578 -0.24216
                  z  -0.23118 -0.21553 -0.03472 -0.03502 -0.03144 -0.03084
  9   c           x  -0.15767 -0.15688  0.00220  0.00279  0.01525  0.01576
                  y   0.00234 -0.00742  0.02208  0.02276  0.15345  0.15511
                  z   0.10086  0.17773  0.00318  0.00285  0.01962  0.01842
 10   h           x   0.00969 -0.08032 -0.02719 -0.02723  0.02140  0.02323
                  y  -0.02857 -0.02410 -0.28219 -0.28475  0.21050  0.21929
                  z   0.20569  0.22469 -0.03679 -0.03766  0.02748  0.02773
 11   c           x  -0.07989  0.03822  0.00220  0.00304 -0.01547 -0.01699
                  y  -0.00505 -0.01730  0.02424  0.02570 -0.15173 -0.15353
                  z   0.09844  0.10504  0.00305  0.00297 -0.01991 -0.02058
 12   h           x  -0.06612  0.05163 -0.02724 -0.02680 -0.02305 -0.02470
                  y   0.02767  0.01529 -0.28115 -0.28282 -0.23025 -0.23416
                  z  -0.15817 -0.15799 -0.03633 -0.03658 -0.03004 -0.03035
 13   h           x  -0.09698 -0.00532 -0.02518  0.02502  0.02359 -0.02242
                  y   0.03315 -0.02550 -0.27891  0.28053  0.24921 -0.23931
                  z  -0.23165  0.22303 -0.03509  0.03558  0.03224 -0.03084
 14   h           x   0.02828  0.08063 -0.02666  0.02684 -0.02133  0.02259
                  y  -0.02987  0.02540 -0.28166  0.28568 -0.21330  0.21648
                  z   0.19927 -0.23167 -0.03714  0.03821 -0.02814  0.02768
 15   c           x  -0.12736  0.15178  0.00254 -0.00236  0.01406 -0.01300
                  y   0.03922 -0.03252  0.02435 -0.02445  0.15126 -0.14872
                  z  -0.21632  0.14154  0.00365 -0.00378  0.02001 -0.01987
 16   c           x  -0.15594  0.16203  0.00215 -0.00276 -0.01520  0.01531
                  y   0.00402  0.00797  0.02204 -0.02287 -0.15543  0.15306
                  z   0.08383 -0.18176  0.00320 -0.00290 -0.02008  0.01839
 17   c           x   0.10356  0.03665  0.00203 -0.00175 -0.01316  0.01404
                  y   0.00425 -0.01790  0.02429 -0.02455 -0.15011  0.14657
                  z  -0.09591  0.10905  0.00339 -0.00338 -0.02029  0.02001
 18   c           x  -0.10341 -0.03663  0.00214 -0.00300  0.01543 -0.01655
                  y  -0.00267  0.01768  0.02416 -0.02575  0.15373 -0.15158
                  z   0.09587 -0.10832  0.00309 -0.00302  0.02041 -0.02054
 19   h           x   0.09031  0.05055 -0.02286  0.02300 -0.02139  0.02253
                  y  -0.03030  0.02161 -0.29222  0.28900 -0.25409  0.25610
                  z   0.15431 -0.16149 -0.03786  0.03738 -0.03217  0.03344
 20   h           x  -0.08988 -0.05037 -0.02673  0.02641  0.02295 -0.02397
                  y   0.02979 -0.01645 -0.28041  0.28356  0.23290 -0.23051
                  z  -0.15640  0.16319 -0.03666  0.03710  0.03072 -0.03020
 21   c           x   0.15645 -0.16265  0.00205 -0.00197  0.01335 -0.01351
                  y  -0.00209 -0.00945  0.02440 -0.02525  0.14945 -0.14636
                  z  -0.08342  0.18156  0.00318 -0.00357  0.02044 -0.01898
 22   c           x   0.12673 -0.15110  0.00197 -0.00174 -0.01469  0.01393
                  y  -0.04171  0.03408  0.02350 -0.02291 -0.15224  0.14934
                  z   0.21616 -0.14155  0.00262 -0.00262 -0.02101  0.02139
 23   h           x  -0.02614 -0.08108 -0.02453  0.02442  0.02543 -0.02485
                  y   0.03094 -0.02064 -0.28525  0.28052  0.26756 -0.26362
                  z  -0.19829  0.23221 -0.04185  0.04086  0.03886 -0.03698
 24   h           x   0.09442  0.00632 -0.02762  0.02754 -0.02387  0.02346
                  y  -0.04581  0.03361 -0.28290  0.28646 -0.23761  0.23323
                  z   0.23057 -0.22178 -0.03954  0.04012 -0.03222  0.03214

reduced mass(g/mol)     6.020    6.006    1.085    1.088    4.103    4.070


       mode              25       26       27       28       29       30

     frequency         859.68   861.66   861.76   867.06   965.24   965.79

     symmetry            a        a        a        a        a        a   

        IR               YES      YES      YES      YES      YES      YES
|dDIP/dQ|   (a.u.)     0.0000   0.0010   0.0000   0.0013   0.0006   0.0000
intensity (km/mol)       0.00     1.70     0.00     2.81     0.68     0.00
intensity (  %   )       0.00     0.71     0.00     1.17     0.28     0.00
 
       RAMAN             YES      YES      YES      YES      YES      YES
 
  1   h           x   0.01762  0.00764 -0.03585 -0.03758 -0.01643  0.01322
                  y   0.18337  0.08499 -0.34742 -0.39373 -0.13916  0.12184
                  z   0.02594  0.01120 -0.04670 -0.05353 -0.02138  0.02085
  2   c           x  -0.00297 -0.00159  0.00481  0.00607  0.00015  0.00034
                  y  -0.02813 -0.01226  0.05263  0.05951  0.01994 -0.01643
                  z  -0.00312 -0.00211  0.00710  0.00832 -0.00051  0.00171
  3   c           x   0.00216  0.00389  0.00483  0.00309  0.00214 -0.00320
                  y   0.03122  0.04208  0.05111  0.03626  0.04820 -0.05229
                  z   0.00436  0.00520  0.00737  0.00503  0.01034 -0.01073
  4   h           x  -0.02152 -0.02522 -0.02927 -0.02243 -0.02242  0.02275
                  y  -0.20205 -0.28114 -0.34263 -0.24239 -0.23769  0.25661
                  z  -0.03115 -0.04150 -0.04923 -0.03544 -0.03049  0.03284
  5   c           x   0.00501  0.00547  0.00004 -0.00138 -0.00154  0.00166
                  y   0.06121  0.05655  0.00163 -0.01850 -0.05872  0.05942
                  z   0.00803  0.00770  0.00072 -0.00252 -0.00770  0.00729
  6   h           x  -0.03201 -0.02942 -0.00090  0.01015  0.02637 -0.02629
                  y  -0.40012 -0.37343 -0.00576  0.12285  0.28830 -0.28727
                  z  -0.05016 -0.04703  0.00342  0.01528  0.03629 -0.03832
  7   c           x   0.00222  0.00150 -0.00526 -0.00536 -0.00155  0.00192
                  y   0.02777  0.01277 -0.05090 -0.05745  0.00221  0.00092
                  z   0.00357  0.00199 -0.00699 -0.00711 -0.00329  0.00376
[...]
                  z  -0.11421  0.11567  0.02252 -0.02230  0.07385 -0.00221
 22   c           x   0.19111 -0.19251  0.03840 -0.03809  0.09271 -0.05497
                  y  -0.00422  0.00288 -0.00098  0.00092 -0.00244  0.01060
                  z  -0.10147  0.10128 -0.01952  0.01932 -0.04622 -0.04116
 23   h           x   0.15706 -0.15741 -0.23942  0.23750 -0.19043 -0.18803
                  y  -0.02700  0.02674  0.04273 -0.04261  0.02284  0.04445
                  z   0.09932 -0.09783 -0.15129  0.15006 -0.03881 -0.18800
 24   h           x  -0.17342  0.17311 -0.25384  0.25209 -0.33664  0.06438
                  y   0.00319  0.00239  0.00618 -0.00615  0.00785  0.00969
                  z   0.08760 -0.08759  0.13273 -0.13184  0.17767 -0.11860

reduced mass(g/mol)     7.147    7.262    1.248    1.248    2.002    2.001


       mode              55       56       57       58       59       60

     frequency        1517.30  1517.62  1637.16  1637.29  1637.48  1638.34

     symmetry            a        a        a        a        a        a   

        IR               YES      YES      YES      YES      YES      YES
|dDIP/dQ|   (a.u.)     0.0000   0.0028   0.0002   0.0001   0.0000   0.0000
intensity (km/mol)       0.00    13.45     0.07     0.02     0.00     0.00
intensity (  %   )       0.00     5.61     0.03     0.01     0.00     0.00
 
       RAMAN             YES      YES      YES      YES      YES      YES
 
  1   h           x   0.33222  0.04016  0.17257  0.21028 -0.26009  0.05011
                  y  -0.01177 -0.01284 -0.01919  0.00307  0.00724 -0.01817
                  z  -0.14777  0.06792  0.02630 -0.16753  0.13197  0.10380
  2   c           x  -0.07948  0.02843 -0.05448 -0.20626  0.20222  0.05119
                  y  -0.00079 -0.01058 -0.01242  0.01236 -0.00500 -0.01719
                  z   0.06172  0.05792  0.13348  0.05441 -0.10797  0.09081
  3   c           x  -0.03896 -0.09364 -0.05659  0.19563 -0.14216 -0.14385
                  y   0.01399  0.01142  0.02448 -0.02559  0.01038  0.03419
                  z  -0.07671 -0.02126 -0.14343  0.05580  0.01801 -0.15255
  4   h           x   0.26228  0.25878  0.19016 -0.17491  0.06370  0.25125
                  y  -0.03818 -0.05243 -0.01813  0.04076 -0.02643 -0.03680
                  z   0.10280  0.21026  0.00149 -0.18661  0.16016  0.09095
  5   c           x   0.06192  0.03801 -0.00691 -0.10702  0.09515  0.04636
                  y  -0.00865  0.00825 -0.03060  0.00893  0.00673 -0.03067
                  z   0.02415 -0.08767  0.23340  0.00732 -0.11390  0.20013
  6   h           x   0.08130  0.02369  0.02100 -0.11721  0.09084  0.07585
                  y   0.00402 -0.04527  0.03835  0.01316 -0.02952  0.02594
                  z  -0.07826  0.32886 -0.29717 -0.01884  0.15385 -0.25022
  7   c           x  -0.07831  0.02858  0.05340  0.20761 -0.20273 -0.05529
                  y  -0.00112 -0.01021  0.01276 -0.01276  0.00513  0.01696
                  z   0.06338  0.05787 -0.13225 -0.05398  0.10744 -0.08875
  8   h           x   0.33312  0.03993 -0.16678 -0.21237  0.25944 -0.04143
                  y  -0.01228 -0.01227  0.01824 -0.00262 -0.00724  0.01731
                  z  -0.14641  0.06807 -0.02839  0.17079 -0.13386 -0.10849
  9   c           x  -0.04120 -0.09284  0.05475 -0.19533  0.14203  0.14324
                  y   0.01419  0.01176 -0.02394  0.02579 -0.01129 -0.03351
                  z  -0.07863 -0.02108  0.13981 -0.05449 -0.01762  0.14852
 10   h           x   0.26461  0.25534 -0.18372  0.17373 -0.06442 -0.24391
                  y  -0.03884 -0.05186  0.01876 -0.04027  0.02557  0.03660
                  z   0.10356  0.20773 -0.00047  0.18651 -0.15972 -0.09057
 11   c           x   0.06220  0.03762  0.00863  0.10584 -0.09456 -0.04336
                  y  -0.00957  0.00776  0.02965 -0.00865 -0.00597  0.03011
                  z   0.02700 -0.08709 -0.23052 -0.00965  0.11420 -0.19726
 12   h           x   0.08179  0.02365 -0.01878  0.11482 -0.08977 -0.07172
                  y   0.00296 -0.04451 -0.03727 -0.01492  0.03026 -0.02449
                  z  -0.08264  0.32417  0.29241  0.02263 -0.15380  0.24389
 13   h           x  -0.33369  0.04136 -0.16086 -0.20776 -0.26673  0.04228
                  y   0.01149 -0.01231  0.01785 -0.00341  0.00693 -0.01749
                  z   0.14713  0.06704 -0.03111  0.16878  0.13621  0.10819
 14   h           x  -0.26425  0.25552 -0.18471  0.17322  0.06330  0.24409
                  y   0.03843 -0.05168  0.01894 -0.03988 -0.02598 -0.03626
                  z  -0.10282  0.20713 -0.00386  0.18386  0.16280  0.09013
 15   c           x   0.07860  0.02811  0.04888  0.20429  0.20746  0.05484
                  y   0.00130 -0.01021  0.01310 -0.01229 -0.00455 -0.01700
                  z  -0.06330  0.05789 -0.12963 -0.05202 -0.11138  0.08913
 16   c           x   0.04096 -0.09263  0.05775 -0.19328 -0.14416 -0.14313
                  y  -0.01423  0.01165 -0.02423  0.02543  0.01092  0.03350
                  z   0.07869 -0.02129  0.13903 -0.05503  0.01987 -0.14866
 17   c           x  -0.06194  0.03812 -0.00479 -0.10549 -0.09709 -0.04621
                  y   0.00864  0.00837 -0.03072  0.00892 -0.00761  0.03094
                  z  -0.02456 -0.08715  0.23031  0.00497  0.11923 -0.20061
 18   c           x  -0.06223  0.03770  0.00644  0.10430  0.09647  0.04326
                  y   0.00956  0.00788  0.02980 -0.00864  0.00682 -0.03039
                  z  -0.02737 -0.08659 -0.22740 -0.00728 -0.11948  0.19772
 19   h           x  -0.08137  0.02416  0.02268 -0.11583 -0.09247 -0.07551
                  y  -0.00449 -0.04550  0.03809  0.01244  0.03071 -0.02652
                  z   0.07988  0.32694 -0.29307 -0.01550 -0.16063  0.25096
 20   h           x  -0.08188  0.02406 -0.02057  0.11343  0.09134  0.07147
                  y  -0.00340 -0.04475 -0.03700 -0.01419 -0.03144  0.02510
                  z   0.08417  0.32229  0.28826  0.01945  0.16064 -0.24450
 21   c           x   0.03870 -0.09344 -0.05954  0.19345  0.14416  0.14363
                  y  -0.01403  0.01131  0.02475 -0.02523 -0.00999 -0.03419
                  z   0.07679 -0.02150 -0.14258  0.05634 -0.02030  0.15265
 22   c           x   0.07980  0.02796 -0.04992 -0.20278 -0.20680 -0.05070
                  y   0.00097 -0.01058 -0.01278  0.01189  0.00441  0.01724
                  z  -0.06168  0.05794  0.13076  0.05239  0.11188 -0.09115
 23   h           x  -0.26201  0.25910  0.19099 -0.17446 -0.06255 -0.25137
                  y   0.03776 -0.05224 -0.01832  0.04031  0.02680  0.03646
                  z  -0.10207  0.20970  0.00481 -0.18388 -0.16320 -0.09041
 24   h           x  -0.33294  0.04160  0.16652  0.20558  0.26738 -0.05092
                  y   0.01098 -0.01288 -0.01872  0.00381 -0.00696  0.01824
                  z   0.14855  0.06689  0.02900 -0.16545 -0.13423 -0.10348

reduced mass(g/mol)     2.003    2.003    5.321    5.318    5.313    5.327


       mode              61       62       63       64       65       66

     frequency        3152.75  3152.85  3161.93  3162.30  3165.66  3166.10

     symmetry            a        a        a        a        a        a   

        IR               YES      YES      YES      YES      YES      YES
|dDIP/dQ|   (a.u.)     0.0001   0.0003   0.0012   0.0000   0.0019   0.0000
intensity (km/mol)       0.01     0.21     2.47     0.00     6.39     0.00
intensity (  %   )       0.00     0.09     1.03     0.00     2.67     0.00
 
       RAMAN             YES      YES      YES      YES      YES      YES
 
  1   h           x  -0.15726  0.10770  0.19580  0.18586  0.06982 -0.06768
                  y   0.05675 -0.03879 -0.07081 -0.06704 -0.02569  0.02480
                  z  -0.30418  0.20820  0.37915  0.35977  0.13868 -0.13466
  2   c           x   0.01341 -0.00916 -0.01691 -0.01605 -0.00506  0.00492
                  y  -0.00474  0.00324  0.00604  0.00573  0.00221 -0.00211
                  z   0.02519 -0.01725 -0.03222 -0.03058 -0.01250  0.01210
  3   c           x   0.00834 -0.00598 -0.00597 -0.00601 -0.01691  0.01625
                  y   0.00118 -0.00084 -0.00102 -0.00104 -0.00218  0.00208
                  z  -0.01341  0.00958  0.01089  0.01098  0.02577 -0.02472
  4   h           x  -0.10547  0.07515  0.08050  0.08052  0.19968 -0.19142
                  y  -0.01419  0.01014  0.01098  0.01116  0.02673 -0.02541
                  z   0.16302 -0.11628 -0.12572 -0.12617 -0.30722  0.29440
  5   c           x  -0.01555  0.01112 -0.01152 -0.01149  0.03119 -0.03019
                  y   0.00138 -0.00099  0.00113  0.00113 -0.00270  0.00261
                  z  -0.00092  0.00064 -0.00137 -0.00139  0.00115 -0.00109
  6   h           x   0.19139 -0.13658  0.13924  0.13816 -0.37092  0.35846
                  y  -0.01642  0.01173 -0.01211 -0.01195  0.03170 -0.03080
                  z   0.00808 -0.00584  0.00656  0.00679 -0.01497  0.01438
  7   c           x   0.01249 -0.00856  0.01612  0.01532 -0.00792  0.00780
                  y  -0.00432  0.00296 -0.00555 -0.00527  0.00232 -0.00233
                  z   0.02501 -0.01710  0.03188  0.03028 -0.01265  0.01254
  8   h           x  -0.15380  0.10516 -0.19228 -0.18245  0.08042 -0.07989
                  y   0.05204 -0.03566  0.06497  0.06182 -0.02672  0.02670
                  z  -0.29838  0.20415 -0.37269 -0.35383  0.15233 -0.15118
  9   c           x   0.01928 -0.01328  0.01026  0.00987  0.01499 -0.01423
                  y   0.00203 -0.00141  0.00138  0.00133  0.00132 -0.00129
                  z  -0.02970  0.02047 -0.01812 -0.01734 -0.02120  0.02016
 10   h           x  -0.23050  0.15885 -0.13081 -0.12542 -0.16442  0.15640
                  y  -0.02459  0.01699 -0.01431 -0.01380 -0.01709  0.01636
                  z   0.35693 -0.24596  0.20548  0.19703  0.25209 -0.23969
 11   c           x  -0.03520  0.02428  0.01902  0.01815 -0.02651  0.02551
                  y   0.00357 -0.00246 -0.00212 -0.00200  0.00257 -0.00244
                  z  -0.00130  0.00090  0.00202  0.00189  0.00002  0.00003
 12   h           x   0.42264 -0.29147 -0.22356 -0.21345  0.30726 -0.29572
                  y  -0.04289  0.02954  0.02296  0.02186 -0.03113  0.02984
                  z   0.01646 -0.01135 -0.01036 -0.00993  0.01061 -0.01023
 13   h           x   0.10386  0.14914 -0.18429  0.19143  0.07960  0.08454
                  y  -0.03522 -0.05068  0.06245 -0.06505 -0.02655 -0.02834
                  z   0.20115  0.28903 -0.35671  0.37075  0.15073  0.15989
 14   h           x   0.15652  0.22646 -0.13108  0.13833 -0.15430 -0.15887
                  y   0.01733  0.02512 -0.01485  0.01576 -0.01665 -0.01725
                  z  -0.24249 -0.35081  0.20581 -0.21719  0.23659  0.24351
 15   c           x  -0.00843 -0.01213  0.01543 -0.01604 -0.00779 -0.00821
                  y   0.00293  0.00420 -0.00533  0.00554  0.00230  0.00247
                  z  -0.01685 -0.02420  0.03050 -0.03172 -0.01254 -0.01328
 16   c           x  -0.01310 -0.01895  0.01034 -0.01095  0.01410  0.01448
                  y  -0.00143 -0.00207  0.00141 -0.00150  0.00128  0.00136
                  z   0.02016  0.02917 -0.01810  0.01906 -0.01986 -0.02045
 17   c           x   0.01049  0.01576 -0.01100  0.01189  0.03006  0.03134
                  y  -0.00091 -0.00137  0.00107 -0.00115 -0.00255 -0.00266
                  z   0.00061  0.00089 -0.00130  0.00144  0.00109  0.00112
 18   c           x   0.02454  0.03552  0.01701 -0.01772 -0.02622 -0.02715
                  y  -0.00246 -0.00354 -0.00188  0.00194  0.00251  0.00256
                  z   0.00092  0.00134  0.00190 -0.00196 -0.00004 -0.00008
 19   h           x  -0.12925 -0.19363  0.13297 -0.14312 -0.35754 -0.37214
                  y   0.01088  0.01631 -0.01135  0.01216  0.02998  0.03137
                  z  -0.00537 -0.00814  0.00619 -0.00696 -0.01429 -0.01477
 20   h           x  -0.29465 -0.42630 -0.20003  0.20842  0.30392  0.31477
                  y   0.02944  0.04254  0.02025 -0.02103 -0.03030 -0.03127
                  z  -0.01139 -0.01647 -0.00932  0.00976  0.01046  0.01084
 21   c           x  -0.00580 -0.00873 -0.00569  0.00637 -0.01628 -0.01691
                  y  -0.00085 -0.00127 -0.00100  0.00113 -0.00216 -0.00223
                  z   0.00936  0.01403  0.01042 -0.01163  0.02480  0.02572
 22   c           x  -0.00958 -0.01373 -0.01612  0.01680 -0.00452 -0.00482
                  y   0.00339  0.00487  0.00577 -0.00602  0.00202  0.00210
                  z  -0.01798 -0.02582 -0.03071  0.03203 -0.01139 -0.01204
 23   h           x   0.07357  0.10997  0.07688 -0.08521  0.19204  0.19900
                  y   0.01019  0.01528  0.01080 -0.01215  0.02649  0.02723
                  z  -0.11376 -0.17024 -0.12015  0.13359 -0.29563 -0.30625
 24   h           x   0.11229  0.16125  0.18669 -0.19469  0.06330  0.06709
                  y  -0.04065 -0.05827 -0.06770  0.07043 -0.02340 -0.02468
                  z   0.21692  0.31134  0.36105 -0.37640  0.12579  0.13351

reduced mass(g/mol)     1.083    1.083    1.087    1.087    1.087    1.087


       mode              67       68       69       70       71       72

     frequency        3179.32  3180.22  3180.70  3180.96  3192.19  3192.52

     symmetry            a        a        a        a        a        a   

        IR               YES      YES      YES      YES      YES      YES
|dDIP/dQ|   (a.u.)     0.0001   0.0061   0.0007   0.0062   0.0000   0.0018
intensity (km/mol)       0.01    66.80     0.76    67.41     0.00     5.63
intensity (  %   )       0.00    27.89     0.32    28.14     0.00     2.35
 
       RAMAN             YES      YES      YES      YES      YES      YES
 
  1   h           x  -0.16368  0.16716 -0.06709  0.04709  0.10683 -0.10478
                  y   0.05942 -0.06030  0.02534 -0.01783 -0.03831  0.03772
                  z  -0.31701  0.32364 -0.13775  0.09763  0.20496 -0.20088
  2   c           x   0.01489 -0.01513  0.00415 -0.00269 -0.01042  0.01032
                  y  -0.00532  0.00538 -0.00222  0.00154  0.00354 -0.00351
                  z   0.02830 -0.02885  0.01333 -0.00955 -0.01861  0.01826
  3   c           x  -0.01615  0.01581  0.01183 -0.01029  0.01899 -0.01980
                  y  -0.00157  0.00151  0.00192 -0.00159  0.00260 -0.00270
                  z   0.02107 -0.02052 -0.02079  0.01763 -0.03019  0.03144
  4   h           x   0.16702 -0.16303 -0.14655  0.12539 -0.21412  0.22318
                  y   0.02160 -0.02082 -0.02018  0.01709 -0.02882  0.02992
                  z  -0.25173  0.24536  0.22905 -0.19557  0.33061 -0.34493
  5   c           x   0.02575 -0.02603  0.02530 -0.01801  0.03569 -0.03733
                  y  -0.00196  0.00201 -0.00237  0.00173 -0.00319  0.00335
                  z  -0.00108  0.00103  0.00230 -0.00188  0.00193 -0.00199
  6   h           x  -0.29313  0.29614 -0.28869  0.20570 -0.39446  0.41309
                  y   0.02467 -0.02510  0.02489 -0.01786  0.03380 -0.03561
                  z  -0.00890  0.00892 -0.01343  0.00999 -0.01652  0.01741
  7   c           x   0.01468 -0.01464 -0.00769  0.00758  0.00929 -0.00909
                  y  -0.00501  0.00506  0.00192 -0.00205 -0.00336  0.00328
                  z   0.02888 -0.02895 -0.00957  0.01040  0.01959 -0.01934
  8   h           x  -0.16600  0.16645  0.06479 -0.06786 -0.10706  0.10511
                  y   0.05584 -0.05642 -0.02086  0.02222  0.03646 -0.03566
                  z  -0.32145  0.32277  0.11769 -0.12507 -0.20932  0.20570
  9   c           x  -0.00937  0.00879  0.02034 -0.01741 -0.00895  0.00873
                  y  -0.00052  0.00049  0.00243 -0.00206 -0.00089  0.00084
                  z   0.01111 -0.01019 -0.03360  0.02839  0.01333 -0.01298
 10   h           x   0.08925 -0.08282 -0.23570  0.20031  0.09473 -0.09196
                  y   0.00879 -0.00819 -0.02549  0.02173  0.01001 -0.00963
                  z  -0.13335  0.12331  0.36826 -0.31242 -0.14599  0.14172
 11   c           x   0.01420 -0.01493  0.04011 -0.03209 -0.01598  0.01558
                  y  -0.00122  0.00127 -0.00422  0.00336  0.00157 -0.00157
                  z  -0.00132  0.00123  0.00260 -0.00220 -0.00034  0.00031
 12   h           x  -0.15741  0.16573 -0.44727  0.35822  0.17313 -0.16826
                  y   0.01570 -0.01646  0.04570 -0.03650 -0.01752  0.01712
                  z  -0.00344  0.00383 -0.01901  0.01541  0.00637 -0.00617
 13   h           x   0.16511  0.16058 -0.06226 -0.08491  0.11198  0.10512
                  y  -0.05572 -0.05466  0.02023  0.02785 -0.03824 -0.03576
                  z   0.31942  0.31147 -0.11404 -0.15640  0.21857  0.20537
 14   h           x  -0.08208 -0.06370  0.19821  0.24700 -0.09858 -0.09154
                  y  -0.00834 -0.00638  0.02218  0.02776 -0.01082 -0.00995
                  z   0.12220  0.09355 -0.30950 -0.38538  0.15197  0.14112
 15   c           x  -0.01455 -0.01398  0.00712  0.00946 -0.00973 -0.00910
                  y   0.00500  0.00489 -0.00185 -0.00256  0.00352  0.00329
                  z  -0.02870 -0.02799  0.00942  0.01303 -0.02044 -0.01929
 16   c           x   0.00876  0.00712 -0.01720 -0.02149  0.00933  0.00870
                  y   0.00048  0.00032 -0.00209 -0.00262  0.00096  0.00086
                  z  -0.01009 -0.00749  0.02817  0.03500 -0.01386 -0.01291
 17   c           x  -0.02582 -0.02699 -0.01961 -0.02221 -0.03679 -0.03683
                  y   0.00193  0.00206  0.00183  0.00210  0.00323  0.00324
                  z   0.00107  0.00090 -0.00196 -0.00234 -0.00193 -0.00191
 18   c           x  -0.01564 -0.01802 -0.03154 -0.03854  0.01625  0.01518
                  y   0.00134  0.00156  0.00330  0.00399 -0.00158 -0.00151
                  z   0.00125  0.00103 -0.00219 -0.00270  0.00037  0.00032
 19   h           x   0.29404  0.30731  0.22392  0.25366  0.40669  0.40768
                  y  -0.02427 -0.02558 -0.01896 -0.02161 -0.03420 -0.03449
                  z   0.00883  0.00937  0.01057  0.01223  0.01681  0.01696
 20   h           x   0.17349  0.20028  0.35170  0.43004 -0.17610 -0.16398
                  y  -0.01706 -0.01966 -0.03542 -0.04316  0.01755  0.01642
                  z   0.00403  0.00523  0.01503  0.01843 -0.00645 -0.00598
 21   c           x   0.01616  0.01512 -0.01062 -0.01288 -0.01912 -0.01912
                  y   0.00163  0.00145 -0.00171 -0.00204 -0.00271 -0.00270
                  z  -0.02106 -0.01934  0.01825  0.02197  0.03048  0.03044
 22   c           x  -0.01509 -0.01535 -0.00232 -0.00282  0.01045  0.00992
                  y   0.00542  0.00553  0.00144  0.00173 -0.00356 -0.00338
                  z  -0.02876 -0.02960 -0.00882 -0.01074  0.01863  0.01753
 23   h           x  -0.16685 -0.15451  0.12954  0.15631  0.21578  0.21575
                  y  -0.02224 -0.02027  0.01829  0.02195  0.02993  0.02981
                  z   0.25157  0.23223 -0.20202 -0.24377 -0.33349 -0.33374
 24   h           x   0.16628  0.17099  0.04289  0.05230 -0.10702 -0.10071
                  y  -0.06053 -0.06191 -0.01646 -0.01996  0.03847  0.03634
                  z   0.32173  0.33110  0.08929  0.10893 -0.20501 -0.19276

reduced mass(g/mol)     1.095    1.094    1.095    1.095    1.099    1.099
 

         **************************************************************
         *                                                            *
         *  zero point VIBRATIONAL energy  :      0.2006485  Hartree  *
         *    SCF-energy                   :   -464.7301698           *
         *    SCF + E(vib0)                :   -464.5295212           *
         *                                                            *
         **************************************************************




 time elapsed for vibrational analysis     1.30 sec


    ------------------------------------------------------------------------
         total  cpu-time :  8 hours 24 minutes and  0 seconds
         total wall-time :  1 hours  4 minutes and 55 seconds
    ------------------------------------------------------------------------

   ****  force : all done  ****


    2020-06-21 01:46:21.277 

