24
	Energy:      16.6446677
H          1.23413        0.50630        2.23845
C          0.70852        0.59118        1.29609
C         -0.67658        0.78608        1.28317
H         -1.22316        0.84979        2.21502
C         -1.35708        0.88956        0.06507
H         -2.42965        1.03263        0.05506
C         -0.65194        0.79947       -1.13966
H         -1.17946        0.87362       -2.08189
C          0.73316        0.60456       -1.12692
H          1.27785        0.53012       -2.05905
C          1.41370        0.50038        0.09128
H          2.48471        0.34632        0.10122
H         -0.35435       -2.57766        2.23270
H         -2.81164       -2.23407        2.20987
C         -0.88187       -2.50348        1.29046
C         -2.26696       -2.30853        1.27774
C         -0.17673       -2.59360        0.08574
C         -2.94750       -2.20432        0.05954
H          0.89583       -2.73671        0.09574
H         -4.01851       -2.05023        0.04961
C         -0.85724       -2.49008       -1.13237
C         -2.24233       -2.29515       -1.14527
H         -0.31067       -2.55383       -2.06422
H         -2.76794       -2.21024       -2.08763
