           Doing BLAS/Lapack in the master proc. with 16 CPUs.
           SMPCPUS    set: Shared-memory Parallelization with  28 CPUs.

           SMP Parallelization Reference:
           C. van Wullen, J. Comput. Chem. 32 (2011) 1195--1201

 force (c-12-38) : TURBOMOLE V7.2 ( 21454 ) 4 Oct 2017 at 12:48:15
 Copyright (C) 2017 TURBOMOLE GmbH, Karlsruhe


    2020-06-22 20:36:01.334 



                             T U R B O M O L E   

                          a o f o r c e - program

                        using direct algorithms for

                       SCF level calculations of
                         * harmonic force constants
                         * hyperpolarizabilities
                         * IR and RAMAN intensities
                         * VCD intensities

                       DFT level calculations of
                         * harmonic force constants
                         * IR intensities
                                                   
       Stephan Boecker, Peter Deglmann, Filipp Furche and Marco Haeser
                          Quantum Chemistry Group
                          Universitaet  Karlsruhe
                                   Germany

 
 
 
 
     References :
 
       RI-J implementation:
         Peter Deglmann, Klaus May, Filipp Furche, Reinhart Ahlrichs
                 Chem. Phys. Lett. 384:103 (2004)
 
       Efficiency, technical details:
         Peter Deglmann, Filipp Furche, Reinhart Ahlrichs
                 Chem. Phys. Lett. 362:511 (2002)
 
       Search of lowest eigenvalues by iterative diagonalization:
         Peter Deglmann, Filipp Furche
                 J. Chem. Phys. 117:9535 (2002)
 
       Vibrational circular dichroism implementation:
        Kevin Reiter, Michael Kuehn, Florian Weigend
                 J. Chem. Phys. 146:054102 (2017)  
 
 


              +--------------------------------------------------+
              | Atomic coordinate, charge and isotop information |
              +--------------------------------------------------+

                    atomic coordinates            atom    charge  isotop
          0.17371653    4.22185547    4.60939235    h      1.000     0
         -0.15680273    3.96874681    2.60328251    c      6.000     0
         -2.19128292    2.51981773    1.77857081    c      6.000     0
         -3.43604940    1.63166799    3.14056879    h      1.000     0
         -2.61126356    2.18591597   -0.79406906    c      6.000     0
         -4.17687382    1.03214445   -1.43373454    h      1.000     0
         -0.99701454    3.30217485   -2.54413998    c      6.000     0
         -1.31681277    3.02993912   -4.54917753    h      1.000     0
          1.03988998    4.74802249   -1.72219398    c      6.000     0
          2.30035875    5.61266413   -3.08658895    h      1.000     0
          1.46160444    5.08021543    0.85359358    c      6.000     0
          3.04879176    6.20572671    1.49542095    h      1.000     0
          0.09759853   -3.89021155    4.61714107    h      1.000     0
         -2.95447874   -6.08123318    1.82771847    h      1.000     0
          0.30977192   -3.78314115    2.58217698    c      6.000     0
         -1.40847536   -5.01023507    1.01488858    c      6.000     0
          2.29107365   -2.40345864    1.53844917    c      6.000     0
         -1.14057287   -4.86310159   -1.59867437    c      6.000     0
          3.61181956   -1.42313180    2.75787327    h      1.000     0
         -2.47881089   -5.81841174   -2.82116147    h      1.000     0
          2.55827171   -2.25590103   -1.07160532    c      6.000     0
          0.84402414   -3.48795145   -2.64018192    c      6.000     0
          4.08494225   -1.15883371   -1.88252323    h      1.000     0
          1.04657439   -3.36328025   -4.67502619    h      1.000     0
 
       center of nuclear mass  :   -0.00005466    0.00007778    0.00000683
       center of nuclear charge:   -0.00004620    0.00006573    0.00000577

              +--------------------------------------------------+
              |               basis set information              |
              +--------------------------------------------------+

              we will work with the 1s 3p 5d 7f 9g ... basis set
              ...i.e. with spherical basis functions...

   type   atoms  prim   cont   basis
   ---------------------------------------------------------------------------
    h       12      8      6   def2-TZVP   [3s1p|5s1p]
    c       12     46     31   def2-TZVP   [5s3p2d1f|11s6p2d1f]
   ---------------------------------------------------------------------------
   total:   24    648    444
   ---------------------------------------------------------------------------

   total number of primitive shells          :   26
   total number of contracted shells         :  180
   total number of cartesian basis functions :  504
   total number of SCF-basis functions       :  444

 
             FOUND RI-J FLAG !
 

 NOTE: THIS IS A PRELIMINARY IMPLEMENTATION. THE RI APPROXIMATION IS
       PRESENTLY USED FOR CPKS CONTRIBUTIONS TO THE HESSIAN ONLY! SEE
       MANUAL FOR FURTHER DETAILS.

  
 AUXILIARY BASIS SET information:

              we will work with the 1s 3p 5d 7f 9g ... basis set
              ...i.e. with spherical basis functions...

   type   atoms  prim   cont   basis
   ---------------------------------------------------------------------------
    h       12     16     11   def2-TZVP   [3s1p1d|5s2p1d]
    c       12     70     49   def2-TZVP   [6s4p3d1f1g|12s5p4d2f1g]
   ---------------------------------------------------------------------------
   total:   24   1032    720
   ---------------------------------------------------------------------------

   total number of primitive shells          :   32
   total number of contracted shells         :  240
   total number of cartesian basis functions :  876
   total number of SCF-basis functions       :  720


 symmetry group of the molecule :   c1 

 the group has the following generators :
   c1(z)

    1 symmetry operations found

 there are 1 real representations :   a   

 maximum number of shells which are related by symmetry :  1


 determining totally symmetric integral contributions 
    - equivalent to irreducible tensor elements - 
 which can be formed within each triple of representations :

             representation triple      contributions

              a     a     a               1

    mo occupation :
   irrep   mo's   occupied
    a      444       42
 
 number of basis functions   :                    444
 number of occupied orbitals :                     42
 
  MOs are in ASCII format !


 reading orbital data $scfmo  from file mos
 orbital characterization : scfconv=7
 time elapsed for calculating density matrices :   0.584 sec

 number of non-frozen orbitals          :   444
 number of non-frozen occupied orbitals :    42
 Blocking parameters 
 shells:
    index      start shell   last shell  start bf    last bf    #bf 
       1             1         180             1        504    504
  
           ----------------------
               RI - INFORMATION
           ----------------------

 biggest AO integral is expected to be     5.725698708

 Threshold for integral neglect (rithr2):   0.50E-11
 Threshold for integral neglect (rithr1):   0.50E-11

 Contributions to RI integral batches: 
  neglected integral batches:                  2117
  direct contribution:                            0
  memory contribution:                 14173
 Core memory available (ricore):             55000 MiB
 Core memory needed for (P|Q) and Cholesky:      4 MiB
 Core memory used for integrals:               767 MiB
 
 ****************************************
 Memory allocated for RIDFT: 771 MiB
 ****************************************
 
  
           ------------------
           density functional
           ------------------
 TPSS global hybrid functional
 exchange:    9/10 (LDA+TPSS) + 1/10 HF
 correlation: LDA (PW) + TPSS

 spherical integration : Lebedev's spherical grid
 spherical gridsize    :                     5
    i.e. gridpoints    :                   590
 value for diffuse not defined
 radial integration    : Chebyshev 2nd kind (scaling 3)
 radial gridsize       :                     8
 integration cells     :                    24
 partition function    : becke
 partition sharpness   :                     3
  
 
 Derivatives of quadrature weights will be included
 
          Overall gridpoints after grid construction =        373774
 Ordering of quadrature gridpoints disabled.
 
 
 
 
 OCCUPIED-OCCUPIED TENSOR SPACES :

          IRREP   tensor space dimension   number of roots

           a              1764                  66
 
 OCCUPIED-VIRTUAL TENSOR SPACES :

          IRREP   tensor space dimension   number of roots

           a             16884                  66
 
 
 
 
 CONSTRUCTING integral bounds

 setting up bound for integral derivative estimation

 increment for numerical differentiation : 0.00050000
 
 machine precision:   2.220446049250313E-016

 integral neglect threshold       :  0.10E-09
 integral storage threshold THIZE :  0.10E-04
 integral storage threshold THIME :         5

 
 
 
 PREPARING NUMERICAL INTEGRATION
 
 Remaining core memory for DFT =                 97580 MB
 
 Memory needed per atom    =                  2982 KiB
 
     i. e.                    24 atoms per loop

 Calculating ground state density on molecular grid

 Integral of ground state density: N =   84.00000418178497    


 
 
 CONSTRUCTING first deriv. of <mu|x,y,z|nu> -> Dip. deriv.
  dipole integral derivatives will be neglected if
  expon. factor <0.992063E-12
      ...terminated. cpu:       2.59       wall:       0.09
 
 
 
 
 CONSTRUCTING first deriv. of  <mu|nu>
                               <mu|h|nu>    -> RHS
              second deriv. of <mu|nu>      -> Hessian
                               <mu|h|nu>    -> Hessian
                               nucl. rep.   -> Hessian
     integrals are neglected if expon. factor <  9.920634920634920E-014
  _________________________________
 |                                 |
 |         DFTD3 V3.1 Rev 0        |
 | S.Grimme, University Bonn       |
 |         June 2014               |
 |   see standalone version        |
 |       dftd3 -h for options      |
 |_________________________________|
 
 Please cite DFT-D3 work done with this code as:
 S. Grimme, J. Antony, S. Ehrlich and H. Krieg,
 J. Chem. Phys, 132 (2010), 154104.
 If used with BJ-damping cite also
 S. Grimme, S. Ehrlich and L. Goerigk,
 J. Comput. Chem. 32 (2011), 1456-1465
 For DFT-D2 the reference is
 S. Grimme, J. Comput. Chem., 27 (2006), 1787-1799
 
      ...terminated. cpu:      20.81       wall:       4.20
 
 
 
 
 CONSTRUCTING second deriv. of 2e energy    -> Hessian
   treating Coulomb (and exchange) contribution
     integrals will be neglected if total contribution <  9.920634920634920E-010
      ...terminated. cpu:    2526.01       wall:      91.13
   treating exchange-correlation contribution
      ...terminated. cpu:    2433.42       wall:      87.92
 
 
 
 
 CONSTRUCTING S(i,j)xi
      ...terminated. cpu:       0.04       wall:       0.04
 
 
 
 
 CONSTRUCTING <i|x,y,z|j>*S(i,j)xi          -> Dip. deriv.
      ...terminated. cpu:       0.92       wall:       0.17
 
 
 
 
 CONSTRUCTING epsilon(i)*S(i,j)xi*S(i,j)chi -> Hessian
      ...terminated. cpu:       0.14       wall:       0.01
 
 
 
 
 CONSTRUCTING G(a,i)[S(k,l)xi]              -> RHS
              G(i,j)[S(k,l)xi]*S(i,j)chi    -> Hessian
 
         Maximum core memory set to                  98000 MB
         This corresponds to                 50057 vectors in CAO basis
      ...terminated. cpu:   12453.70       wall:     446.51
 
 
 
 
 CONSTRUCTING G(mu,nu)[D(kap,lam)]xi
 
          Maximum core memory set to                  98000 MB
          Atoms treated simultaneously :                    24
      ...terminated. cpu:    6641.81       wall:     238.09
 
 
 
 
 CONSTRUCTING F(a,i)xi                      -> RHS
              F(i,j)xi*S(i,j)chi            -> Hessian
 
        Maximum core memory set to                 98000 MB
        This corresponds to                 89112 vectors in CAO basis
      ...terminated. cpu:      32.87       wall:       2.36
 
 
 
 
 CONSTRUCTING epsilon(i)*S(a,i)xi           -> RHS
      ...terminated. cpu:       9.49       wall:       0.47
 
 
 
 
 SOLVING CPHF equations
 
 Residuum convergence criterium   :  1.000000000000000E-005
 
 Maximum number of Davidson iterations set to                    25


                       Nonorthonormal Krylov Space Iteration


 total number of roots to be determined:  66


 maximum core memory set to 98000 MB,
 corresponding to    49886 vectors in CAO basis


 maximum number of simultaneously treated vectors (including degeneracy):       66


 Iteration IRREP Converged      Max. Euclidean
                 roots          residual norm

    1       a        0        6.849546767459480D-02
 
    2       a        0        8.605453150729470D-03
 
    3       a        0        5.804494149707652D-04
 
    4       a       24        3.357992665257893D-05
 
    5       a       66        9.794143748303515D-06
 

 converged!

      ...terminated. cpu:   52163.62       wall:    1939.19
 
 
 
 
 CONSTRUCTING <a|x,y,z|i>*U(a,i)xi          -> Dip. deriv.
      ...terminated. cpu:       1.65       wall:       0.09
 
 
 
 
 CONSTRUCTING RHS(a,i)xi*U(a,i)chi          -> Hessian
      ...terminated. cpu:       0.93       wall:       0.03
 
 
 
 

            -----------------------
            permanent dipole moment
            -----------------------

                                   x                y                z
    electronic part       :    0.0045428075    -0.0054137102    -0.0001693018
     nuclear   part       :   -0.0038807117     0.0055217394     0.0004850214
     total                :    0.0006620958     0.0001080292     0.0003157196

 with reference to the point :   0.0000000        0.0000000        0.0000000
 (given in atomic units)
    | dipole |       :    0.0018845440  debye

   ***  dipole moment & cartesian dipole gradients written onto
        $dipole, $dipgrad,  file=<dipgrad>  ***

             -----------------------------------
             rotational and vibrational analysis
             -----------------------------------


            ==============================================================
            ATOMIC WEIGHTS (average over the natural occurance of isotops)
            ==============================================================
            ('*' denotes special isotop !)
              1     h                 1.00797
              2     c                12.01115
              3     c                12.01115
              4     h                 1.00797
              5     c                12.01115
              6     h                 1.00797
              7     c                12.01115
              8     h                 1.00797
              9     c                12.01115
             10     h                 1.00797
             11     c                12.01115
             12     h                 1.00797
             13     h                 1.00797
             14     h                 1.00797
             15     c                12.01115
             16     c                12.01115
             17     c                12.01115
             18     c                12.01115
             19     h                 1.00797
             20     h                 1.00797
             21     c                12.01115
             22     c                12.01115
             23     h                 1.00797
             24     h                 1.00797

          -------------------------------------------------
          CARTESIAN FORCE CONSTANT MATRIX (hartree/bohr**2)
         (translational & rotational space projected out)
          -------------------------------------------------

   ATOM              1 h                           2 c 
                  dx        dy        dz        dx        dy        dz
   1 h     dx  0.0550458
           dy  0.0214592 0.0405765
           dz  0.0465934 0.0360533 0.3422103
   2 c     dx -0.0584900-0.0167034-0.0430884 0.4865670
           dy -0.0165736-0.0475991-0.0332014 0.2510733 0.3079797
           dz -0.0431134-0.0331914-0.3214013 0.0078354 0.0125829 0.7297200
   3 c     dx  0.0002595-0.0016749 0.0005382-0.2284635-0.1196066-0.0756210
           dy -0.0018355 0.0012848 0.0003244-0.1194300-0.1455330-0.0543776
           dz -0.0256087-0.0179764-0.0062210-0.0233726-0.0179171-0.1471711
   4 h     dx -0.0005446 0.0024519-0.0003186-0.0108556-0.0095547 0.0185164
           dy  0.0023738-0.0021742-0.0001792-0.0094596-0.0040197 0.0132078
           dz  0.0005168 0.0003446 0.0008605-0.0075390-0.0053066 0.0103284
   5 c     dx -0.0013923-0.0062168-0.0017196 0.0095827 0.0009453-0.0309287
           dy -0.0062796 0.0030210-0.0012950 0.0004206 0.0073977-0.0223513
           dz -0.0007554-0.0007412 0.0016216-0.0672597-0.0467786-0.0046400
   6 h     dx -0.0000978-0.0002278 0.0000815 0.0037836-0.0026988-0.0009676
           dy -0.0002063 0.0000461 0.0000613-0.0025532 0.0054159-0.0007146
           dz -0.0013557-0.0009408-0.0004571-0.0000161-0.0002139-0.0060266
   7 c     dx -0.0010895-0.0002420 0.0003149-0.0451947-0.0255917 0.0110116
           dy -0.0002092-0.0009732 0.0002414-0.0256411-0.0258955 0.0080014
           dz  0.0003371 0.0002537 0.0006970 0.0105814 0.0074632-0.0020775
   8 h     dx -0.0003473 0.0006991-0.0000455-0.0010366-0.0001979 0.0003334
           dy  0.0006991-0.0008465-0.0000133-0.0002863-0.0009318 0.0002623
           dz -0.0000557-0.0000103-0.0000735 0.0003468 0.0002745 0.0006770
   9 c     dx  0.0001642-0.0051864 0.0036350 0.0352837 0.0204314 0.0115978
           dy -0.0052260 0.0040286 0.0024500 0.0210922 0.0214307 0.0074434
           dz  0.0026535 0.0018074-0.0006793 0.0478633 0.0328845-0.0466466
  10 h     dx  0.0002492-0.0000020-0.0003285 0.0033305-0.0030460-0.0014111
           dy  0.0000248 0.0002691-0.0002522-0.0030673 0.0054414-0.0012161
           dz  0.0011048 0.0007641-0.0009900-0.0023893-0.0018613-0.0052987
  11 c     dx  0.0067891 0.0033042-0.0059175-0.1828062-0.0856157 0.1114699
           dy  0.0035391 0.0045187-0.0043842-0.0863142-0.1182323 0.0759508
           dz  0.0202816 0.0139318-0.0165981 0.0596367 0.0398829-0.2186800
  12 h     dx -0.0005502 0.0022933 0.0002254-0.0116320-0.0096728-0.0086921
           dy  0.0022774-0.0022090 0.0002040-0.0091772-0.0045790-0.0059380
           dz -0.0005979-0.0003688 0.0009988 0.0174226 0.0124071 0.0109233
  13 h     dx  0.0000178-0.0000127-0.0000181 0.0000047-0.0000087 0.0000686
           dy -0.0000101-0.0000691-0.0000346-0.0000058 0.0000754-0.0000036
           dz  0.0000148 0.0000404 0.0000214 0.0000068-0.0000183 0.0000176
  14 h     dx -0.0000105 0.0000093 0.0000026 0.0000071-0.0000102 0.0000132
           dy -0.0000103 0.0000116 0.0000109 0.0000128-0.0000140-0.0000314
           dz -0.0000043-0.0000044 0.0000016 0.0000076 0.0000127 0.0000064
  15 c     dx -0.0000039 0.0000092 0.0000106 0.0000190 0.0002346-0.0001889
           dy -0.0000079 0.0000671 0.0000187 0.0003815-0.0002482 0.0000674
           dz -0.0000638-0.0000239-0.0000047 0.0002076-0.0000943 0.0002465
  16 c     dx -0.0000011-0.0000288 0.0000021-0.0002755 0.0000381-0.0000303
           dy  0.0000145-0.0000207-0.0000150-0.0000103 0.0002407-0.0000022
           dz -0.0000026-0.0000112-0.0000153-0.0002683 0.0001321 0.0000132
  17 c     dx  0.0000871-0.0001408-0.0001415-0.0000582 0.0002421 0.0000606
           dy  0.0000083 0.0000174-0.0000302 0.0000778-0.0005984 0.0001951
           dz  0.0000617-0.0000506-0.0000734-0.0000057 0.0001762-0.0000587
  18 c     dx  0.0000166 0.0000134 0.0000298 0.0002511 0.0001988 0.0000424
           dy -0.0000085-0.0000062-0.0000011-0.0002011-0.0001283 0.0000846
           dz -0.0000161 0.0000613 0.0000484-0.0000842-0.0003619-0.0000221
  19 h     dx -0.0000536 0.0001383 0.0001062 0.0000666-0.0001453 0.0000756
           dy  0.0000242-0.0000173-0.0000267 0.0001177-0.0000972-0.0000217
           dz -0.0000171 0.0000060 0.0000007 0.0000825-0.0001243 0.0001878
  20 h     dx -0.0000036 0.0000046-0.0000029-0.0000058-0.0000109 0.0000227
           dy  0.0000075 0.0000143 0.0000127 0.0000370 0.0000117 0.0000269
           dz  0.0000011 0.0000163 0.0000081 0.0000184-0.0000146 0.0000069
  21 c     dx -0.0000345 0.0000222 0.0000536-0.0001753-0.0001514-0.0000523
           dy -0.0000366 0.0000317 0.0000323-0.0001367 0.0002453 0.0000379
           dz  0.0000110-0.0000336-0.0000294-0.0001521 0.0000739 0.0000087
  22 c     dx -0.0000160 0.0000458 0.0000271 0.0001551-0.0002874-0.0000210
           dy -0.0000191 0.0000161-0.0000124-0.0003179-0.0004080-0.0000049
           dz  0.0000118 0.0000441 0.0000501 0.0000716-0.0000485-0.0000946
  23 h     dx  0.0000156-0.0000166-0.0000399-0.0000187 0.0000410-0.0000038
           dy -0.0000027 0.0000015 0.0000167 0.0000500 0.0000338-0.0000439
           dz  0.0000087 0.0000071 0.0000041 0.0000470 0.0000555-0.0000824
  24 h     dx -0.0000101 0.0000016-0.0000000-0.0000391-0.0000329-0.0000172
           dy -0.0000025 0.0000106 0.0000194 0.0000410 0.0000123 0.0000362
           dz -0.0000056 0.0000225 0.0000204 0.0000477-0.0000048 0.0000638

   ATOM              3 c                           4 h 
                  dx        dy        dz        dx        dy        dz
   3 c     dx  0.5099975
           dy  0.2690585 0.3251713
           dz -0.0322799-0.0177490 0.6952402
   4 h     dx -0.1528677-0.0832341 0.1111992 0.1570366
           dy -0.0838571-0.0959377 0.0795415 0.0941119 0.0925074
           dz  0.1112924 0.0791438-0.1809388-0.1202670-0.0858438 0.1900452
   5 c     dx -0.1100591-0.0358738-0.0582827 0.0064592 0.0027206 0.0210230
           dy -0.0354539-0.0873537-0.0457225 0.0024986 0.0048463 0.0150226
           dz -0.0062465-0.0078766-0.3272266-0.0049147-0.0036048-0.0157682
   6 h     dx -0.0005160-0.0025680 0.0003514-0.0008434 0.0023053-0.0003124
           dy -0.0027579 0.0009849 0.0002332 0.0022674-0.0022919-0.0001998
           dz -0.0254495-0.0185717-0.0047241 0.0003920 0.0003748 0.0012174
   7 c     dx  0.0365333 0.0211487 0.0482048 0.0033148-0.0029434-0.0023223
           dy  0.0205299 0.0222673 0.0324348-0.0030548 0.0052249-0.0017994
           dz  0.0115931 0.0078306-0.0464161-0.0013911-0.0013121-0.0053132
   8 h     dx  0.0001464-0.0051896 0.0026754 0.0002361 0.0000661 0.0010995
           dy -0.0050910 0.0038380 0.0018815 0.0000171 0.0002347 0.0007631
           dz  0.0036112 0.0024023-0.0007331-0.0003197-0.0002561-0.0009978
   9 c     dx -0.0217282-0.0096908-0.0266019-0.0003032 0.0002215-0.0008428
           dy -0.0096656-0.0152216-0.0190557 0.0003003-0.0005529-0.0005929
           dz -0.0268987-0.0197073-0.0361884-0.0008380-0.0005883-0.0004061
  10 h     dx -0.0003494 0.0003000-0.0008898-0.0004366 0.0006293 0.0000974
           dy  0.0002607-0.0006163-0.0005847 0.0006494-0.0008676 0.0000698
           dz -0.0008594-0.0006005-0.0003869 0.0000867 0.0000756 0.0000511
  11 c     dx -0.0334939-0.0289583 0.0011192-0.0006143-0.0055587-0.0020695
           dy -0.0280165-0.0126732 0.0018398-0.0057239 0.0032661-0.0014468
           dz  0.0371362 0.0272074 0.0575145-0.0029658-0.0021320 0.0004700
  12 h     dx  0.0013917-0.0042710 0.0038698-0.0006424-0.0006389-0.0004804
           dy -0.0042873 0.0045400 0.0024812-0.0006092-0.0001598-0.0003141
           dz  0.0029002 0.0018646-0.0025773 0.0009587 0.0006867 0.0003599
  13 h     dx  0.0000962 0.0000078-0.0000876-0.0000626 0.0000341 0.0000270
           dy -0.0001275 0.0000337 0.0000675 0.0001447-0.0000254-0.0000248
           dz  0.0001528 0.0000057-0.0000941-0.0001324 0.0000382 0.0000308
  14 h     dx -0.0000275-0.0000199 0.0000249-0.0000055 0.0000016 0.0000007
           dy -0.0000624-0.0000136 0.0001203 0.0000113-0.0000413-0.0000657
           dz -0.0000242-0.0000075-0.0000114 0.0000133 0.0000005 0.0000190
  15 c     dx -0.0000696 0.0000596-0.0000326 0.0000422 0.0001096-0.0000739
           dy  0.0002130-0.0008480-0.0002088-0.0001368-0.0000876 0.0001324
           dz -0.0001613-0.0001975 0.0000283 0.0000108 0.0000074 0.0001621
  16 c     dx -0.0000465 0.0003036 0.0000675 0.0002209-0.0000800-0.0001415
           dy -0.0000585-0.0000495-0.0000558 0.0000292 0.0000169 0.0000271
           dz -0.0000271 0.0001951 0.0001743 0.0000488 0.0000169-0.0000330
  17 c     dx -0.0001591 0.0005794-0.0002866-0.0000545-0.0000479 0.0000827
           dy  0.0005522-0.0003383 0.0002215-0.0002167 0.0001290 0.0000868
           dz  0.0003335-0.0002050 0.0004565-0.0000388 0.0000620-0.0000532
  18 c     dx -0.0000848-0.0002116-0.0001306-0.0000154-0.0000099-0.0000047
           dy -0.0000700 0.0001553 0.0000305 0.0000168 0.0000292 0.0000192
           dz -0.0000440 0.0001147 0.0000464 0.0000296-0.0000805-0.0000946
  19 h     dx -0.0000834-0.0002280 0.0000415-0.0000280 0.0000127-0.0000244
           dy -0.0000330 0.0000962-0.0000710 0.0000078-0.0000368-0.0000037
           dz -0.0000766-0.0000754-0.0000319 0.0000289 0.0000051-0.0000068
  20 h     dx  0.0000094-0.0000005 0.0000069-0.0000062 0.0000088 0.0000061
           dy  0.0000482 0.0000368-0.0000166-0.0000167 0.0000038-0.0000014
           dz  0.0000271 0.0000007-0.0000052-0.0000331 0.0000114-0.0000025
  21 c     dx -0.0002245 0.0001204 0.0000349-0.0000186-0.0000325-0.0000010
           dy  0.0002645-0.0001538 0.0004627 0.0000045-0.0000057-0.0000075
           dz  0.0001460 0.0001495-0.0004238 0.0000903-0.0000435 0.0000147
  22 c     dx -0.0001899-0.0000867-0.0000170-0.0000625 0.0000434-0.0000098
           dy -0.0001492 0.0003760 0.0000986 0.0000533-0.0000410-0.0000221
           dz -0.0000486 0.0001445-0.0002482-0.0000918-0.0000044 0.0000118
  23 h     dx -0.0000541 0.0000368-0.0000595 0.0000396-0.0000019-0.0000414
           dy -0.0000096-0.0000342-0.0000517-0.0000033-0.0000150 0.0000019
           dz  0.0000063-0.0000039-0.0000460-0.0000367 0.0000030 0.0000118
  24 h     dx -0.0000167-0.0000168 0.0000537 0.0000115-0.0000087-0.0000152
           dy -0.0000061-0.0000114-0.0000040-0.0000142-0.0000016 0.0000174
           dz -0.0000001-0.0000113-0.0000163-0.0000271 0.0000137 0.0000316

   ATOM              5 c                           6 h 
                  dx        dy        dz        dx        dy        dz
   5 c     dx  0.5256525
           dy  0.2822349 0.3372740
           dz  0.0138859 0.0193501 0.6698971
   6 h     dx -0.2124797-0.1293835-0.0656491 0.2213159
           dy -0.1304238-0.1319670-0.0490302 0.1442814 0.1313383
           dz -0.0657502-0.0487512-0.0862263 0.0709167 0.0530034 0.0876418
   7 c     dx -0.1829175-0.0863620 0.0590213-0.0111220-0.0093740 0.0174401
           dy -0.0848342-0.1207164 0.0395302-0.0102261-0.0041722 0.0127116
           dz  0.1111595 0.0764080-0.2186422-0.0084701-0.0059157 0.0108804
   8 h     dx  0.0069424 0.0034795 0.0202826-0.0006598 0.0022930-0.0006188
           dy  0.0028637 0.0050974 0.0138415 0.0024085-0.0022079-0.0003054
           dz -0.0057572-0.0045828-0.0166494 0.0001555 0.0002211 0.0009997
   9 c     dx -0.0332100-0.0284853 0.0375711 0.0013889-0.0040695 0.0028856
           dy -0.0284739-0.0124784 0.0265928-0.0042709 0.0043399 0.0018131
           dz  0.0014765 0.0017536 0.0575173 0.0037980 0.0024237-0.0026083
  10 h     dx -0.0006035-0.0057590-0.0030064-0.0006433-0.0005884 0.0009912
           dy -0.0057417 0.0033779-0.0020979-0.0006238-0.0001686 0.0006717
           dz -0.0020183-0.0015239 0.0005121-0.0004530-0.0003194 0.0003535
  11 c     dx -0.0070577 0.0014926 0.0163448 0.0001548 0.0005459 0.0005069
           dy  0.0014638-0.0071091 0.0108324 0.0005974-0.0002455 0.0003386
           dz  0.0165036 0.0111896-0.0589298 0.0005138 0.0003252-0.0011009
  12 h     dx  0.0001493 0.0006526 0.0005396-0.0004975 0.0005949-0.0000742
           dy  0.0005810-0.0003457 0.0003358 0.0006237-0.0008955-0.0000169
           dz  0.0005233 0.0003573-0.0011207-0.0000694-0.0000224 0.0001330
  13 h     dx -0.0000371-0.0000453-0.0000021 0.0000153-0.0000023-0.0000129
           dy  0.0000229 0.0000403 0.0000379-0.0000148-0.0000030-0.0000048
           dz -0.0000540-0.0000422-0.0000404 0.0000427-0.0000166 0.0000003
  14 h     dx  0.0000143-0.0000177-0.0000024-0.0000153 0.0000110 0.0000056
           dy -0.0000422-0.0000117-0.0000693 0.0000073-0.0000117 0.0000627
           dz  0.0000409 0.0000250 0.0000292 0.0000078 0.0000057-0.0000183
  15 c     dx -0.0000882 0.0000729 0.0000595-0.0000322 0.0000130-0.0000646
           dy -0.0000636 0.0001530-0.0000207 0.0000008 0.0000420-0.0000835
           dz  0.0000989-0.0000231 0.0000478-0.0000399 0.0000435-0.0000942
  16 c     dx -0.0000971 0.0000290 0.0000163 0.0001367-0.0000675 0.0000651
           dy  0.0000510 0.0000766 0.0000305-0.0000154-0.0000259-0.0000304
           dz  0.0002452-0.0000105-0.0000139-0.0002353 0.0000284-0.0000263
  17 c     dx -0.0002832 0.0002806-0.0001683-0.0000597-0.0000119-0.0000175
           dy  0.0001424-0.0004228-0.0000115 0.0000271-0.0000099 0.0000007
           dz -0.0000226-0.0003855-0.0003968 0.0000434 0.0000266-0.0000623
  18 c     dx -0.0002116 0.0002044-0.0000914 0.0002672 0.0000778 0.0000843
           dy  0.0001908-0.0001764 0.0000483-0.0000508-0.0001505-0.0000302
           dz -0.0000288 0.0000784-0.0000352 0.0001415-0.0000407 0.0001081
  19 h     dx -0.0000331-0.0000046-0.0001041 0.0000511-0.0000033 0.0000359
           dy -0.0000327-0.0000017 0.0000419-0.0000027-0.0000115-0.0000017
           dz  0.0000052 0.0000105-0.0000031 0.0000407-0.0000012 0.0000039
  20 h     dx  0.0000054-0.0000312 0.0000071-0.0000147 0.0000059-0.0000183
           dy -0.0001969-0.0000448-0.0000347 0.0000984-0.0000329-0.0000195
           dz -0.0000741-0.0000425-0.0000383 0.0000168-0.0000187 0.0000080
  21 c     dx -0.0003109 0.0004121 0.0001745-0.0001060-0.0000656 0.0000236
           dy  0.0004202-0.0005434-0.0005213-0.0001394 0.0000435 0.0000527
           dz -0.0001684 0.0005007 0.0000668-0.0000746-0.0000316-0.0000074
  22 c     dx  0.0000278 0.0002363 0.0002375-0.0000472 0.0000299-0.0000200
           dy  0.0003407-0.0002632 0.0000718-0.0001575 0.0000082-0.0000499
           dz -0.0001611 0.0000446 0.0000480 0.0001643-0.0000746 0.0000488
  23 h     dx -0.0000948-0.0001584 0.0000962 0.0000612 0.0000056 0.0000136
           dy -0.0000759 0.0000526 0.0000466 0.0000058-0.0000199 0.0000002
           dz -0.0000107-0.0000442-0.0000121-0.0000204 0.0000006-0.0000033
  24 h     dx  0.0000419-0.0000334-0.0000366-0.0000400-0.0000021 0.0000372
           dy -0.0000017 0.0000975 0.0000270 0.0000239-0.0000051-0.0000097
           dz  0.0000143 0.0000345 0.0000029 0.0000177 0.0000126-0.0000399

   ATOM              7 c                           8 h 
                  dx        dy        dz        dx        dy        dz
   7 c     dx  0.4867808
           dy  0.2511897 0.3104930
           dz  0.0064270 0.0162382 0.7301325
   8 h     dx -0.0580679-0.0165528-0.0414931 0.0545808
           dy -0.0168019-0.0486938-0.0361670 0.0217187 0.0414080
           dz -0.0415657-0.0359936-0.3215823 0.0449309 0.0391469 0.3423240
   9 c     dx -0.2292076-0.1204823-0.0759454 0.0002067-0.0014156 0.0006240
           dy -0.1194119-0.1449780-0.0546762-0.0021530 0.0010811 0.0002806
           dz -0.0237417-0.0185483-0.1472136-0.0255890-0.0180554-0.0061466
  10 h     dx -0.0111115-0.0091223 0.0187516-0.0004990 0.0023775-0.0003805
           dy -0.0094547-0.0040979 0.0131498 0.0024113-0.0021986-0.0001279
           dz -0.0074414-0.0051107 0.0102751 0.0004649 0.0004103 0.0008597
  11 c     dx  0.0086811 0.0007079-0.0308184-0.0013881-0.0062247-0.0016839
           dy  0.0003658 0.0069129-0.0220505-0.0062542 0.0030549-0.0013471
           dz -0.0670229-0.0474722-0.0048023-0.0007289-0.0006727 0.0016404
  12 h     dx  0.0038090-0.0026607-0.0009911-0.0001000-0.0002456 0.0000912
           dy -0.0026690 0.0056329-0.0008122-0.0002547 0.0000894 0.0000479
           dz -0.0000224-0.0001736-0.0060647-0.0013410-0.0009667-0.0004480
  13 h     dx -0.0000146-0.0000099-0.0000125-0.0000106-0.0000051 0.0000065
           dy  0.0000434 0.0000090-0.0000430-0.0000007 0.0000110-0.0000246
           dz -0.0000300 0.0000131 0.0000518 0.0000021-0.0000197 0.0000276
  14 h     dx  0.0000060-0.0000069-0.0000118-0.0000044 0.0000142-0.0000052
           dy  0.0000125 0.0000068 0.0000202-0.0000047 0.0000066-0.0000122
           dz -0.0000116 0.0000177-0.0000241 0.0000169-0.0000173 0.0000134
  15 c     dx  0.0000108-0.0003312 0.0000065-0.0000564 0.0000480-0.0000567
           dy -0.0002532-0.0002089 0.0000535-0.0000196-0.0000073 0.0000053
           dz  0.0000598-0.0000109-0.0001751 0.0000273-0.0000326 0.0000687
  16 c     dx -0.0000002 0.0000160 0.0000250-0.0000159-0.0000035-0.0000186
           dy -0.0000826 0.0001198-0.0000129 0.0000154-0.0000017 0.0000127
           dz  0.0000785 0.0003429-0.0000942 0.0000644-0.0000172 0.0000461
  17 c     dx -0.0001845-0.0000787 0.0000376-0.0000128-0.0000159 0.0000024
           dy  0.0001119 0.0003509-0.0002259-0.0000240-0.0000046 0.0000053
           dz -0.0000667-0.0001055-0.0002143-0.0000727 0.0000112-0.0000407
  18 c     dx -0.0000352 0.0005070 0.0001100 0.0000767-0.0001026 0.0000980
           dy -0.0000374 0.0002890-0.0000700 0.0000458-0.0000040 0.0000275
           dz -0.0001633-0.0005725 0.0000368-0.0000052-0.0000006-0.0000284
  19 h     dx -0.0000649 0.0000517 0.0000826 0.0000159-0.0000143 0.0000341
           dy  0.0000393-0.0000352 0.0000133-0.0000086-0.0000053-0.0000115
           dz -0.0000058 0.0000143-0.0000189 0.0000170-0.0000146 0.0000323
  20 h     dx -0.0000080-0.0000074-0.0000440-0.0000062-0.0000005 0.0000057
           dy  0.0000358 0.0000139-0.0000086-0.0000291-0.0000171 0.0000165
           dz  0.0000186 0.0000060 0.0000276-0.0000101 0.0000077-0.0000021
  21 c     dx -0.0000124 0.0003750 0.0001562 0.0000607-0.0000059-0.0000125
           dy  0.0002313-0.0003381-0.0000148-0.0000348 0.0001064-0.0000624
           dz -0.0002544-0.0000941 0.0000946 0.0000302-0.0000161-0.0000025
  22 c     dx -0.0000663 0.0000553-0.0000352 0.0000007-0.0000388 0.0000448
           dy  0.0000216-0.0012782-0.0000840-0.0000877 0.0000971-0.0001075
           dz  0.0000840 0.0001441 0.0004930-0.0000653 0.0000642-0.0000625
  23 h     dx -0.0000404-0.0001484-0.0001336-0.0000636 0.0000292-0.0000373
           dy  0.0000778-0.0000218 0.0000667-0.0000029-0.0000043-0.0000056
           dz  0.0000332 0.0001033 0.0000729-0.0000358 0.0000031-0.0000337
  24 h     dx  0.0000016-0.0000666 0.0000787 0.0000022 0.0000758-0.0000581
           dy -0.0000541 0.0000890-0.0001043 0.0000854-0.0001017 0.0001008
           dz -0.0000457 0.0000817-0.0001230 0.0000607-0.0000932 0.0001116

   ATOM              9 c                          10 h 
                  dx        dy        dz        dx        dy        dz
   9 c     dx  0.5122442
           dy  0.2687870 0.3183411
           dz -0.0331976-0.0147669 0.6916305
  10 h     dx -0.1547040-0.0823094 0.1121469 0.1593544
           dy -0.0824908-0.0917539 0.0766149 0.0925050 0.0887152
           dz  0.1121673 0.0765863-0.1805283-0.1215489-0.0829156 0.1895834
  11 c     dx -0.1091291-0.0365133-0.0577335 0.0060883 0.0033267 0.0212585
           dy -0.0358158-0.0841417-0.0442499 0.0028927 0.0041022 0.0146720
           dz -0.0061883-0.0080610-0.3243556-0.0048720-0.0036868-0.0156436
  12 h     dx -0.0010592-0.0020060 0.0003989-0.0006727 0.0021460-0.0003747
           dy -0.0022870 0.0001970 0.0002398 0.0021571-0.0022299-0.0001973
           dz -0.0256720-0.0181676-0.0045826 0.0004381 0.0003919 0.0012070
  13 h     dx  0.0000079-0.0000138 0.0000176-0.0000039 0.0000077-0.0000011
           dy  0.0000131-0.0000079-0.0000617 0.0000050 0.0000137-0.0000176
           dz -0.0000344 0.0000070 0.0000567 0.0000024-0.0000161 0.0000110
  14 h     dx  0.0000090-0.0000043-0.0000199-0.0000050 0.0000031 0.0000021
           dy  0.0000497 0.0000213-0.0000053 0.0000056 0.0000150-0.0000038
           dz -0.0000296-0.0000075-0.0000119-0.0000028-0.0000070-0.0000015
  15 c     dx  0.0002147-0.0001889 0.0000910-0.0000017 0.0000320-0.0000136
           dy  0.0000969-0.0001752 0.0002483-0.0000162 0.0000141 0.0000156
           dz -0.0000711-0.0000596-0.0000653-0.0000258-0.0000290 0.0000054
  16 c     dx  0.0001568 0.0000857-0.0001078 0.0000223 0.0000277-0.0000212
           dy -0.0001139-0.0001628-0.0002385-0.0000042 0.0000123-0.0000100
           dz -0.0002347 0.0000611-0.0003313-0.0000133-0.0000374 0.0000031
  17 c     dx -0.0000875-0.0001002 0.0000605 0.0000058 0.0000551-0.0000312
           dy -0.0002276 0.0001716-0.0001166 0.0000014 0.0000311-0.0000075
           dz  0.0001589-0.0000291 0.0000785-0.0000059 0.0000158-0.0000020
  18 c     dx -0.0003307-0.0001633-0.0003590 0.0000111 0.0000282-0.0000196
           dy -0.0001403-0.0000166-0.0001715-0.0000142-0.0000083 0.0000006
           dz  0.0003829 0.0002369 0.0004904 0.0000123 0.0000000 0.0000015
  19 h     dx -0.0000120 0.0000201-0.0000475-0.0000044-0.0000184 0.0000349
           dy -0.0000176 0.0000376 0.0000824 0.0000086 0.0000036-0.0000106
           dz  0.0000063-0.0000404-0.0001128-0.0000078 0.0000052-0.0000068
  20 h     dx  0.0000157-0.0000125-0.0000071-0.0000087 0.0000106-0.0000028
           dy  0.0000239-0.0000124-0.0000018 0.0000090 0.0000177-0.0000050
           dz  0.0000116-0.0000028-0.0000028 0.0000020 0.0000037 0.0000046
  21 c     dx -0.0001412 0.0002192 0.0000129 0.0000022-0.0002084 0.0000878
           dy  0.0002651-0.0003409-0.0001242-0.0000291-0.0000272 0.0000399
           dz  0.0001321-0.0000931 0.0000092-0.0000094 0.0000656-0.0000566
  22 c     dx -0.0000811 0.0000423 0.0001622-0.0000060 0.0000295-0.0000162
           dy  0.0005307 0.0003290 0.0005449-0.0000007 0.0000126 0.0000008
           dz -0.0001659 0.0000690 0.0000028 0.0000496-0.0000074 0.0000328
  23 h     dx  0.0002387-0.0000735-0.0001282-0.0000103 0.0001144-0.0000279
           dy  0.0000823-0.0001279 0.0000258 0.0000058-0.0000411 0.0000260
           dz -0.0001194 0.0000368 0.0000979 0.0000200 0.0000026 0.0000167
  24 h     dx  0.0000636 0.0000397-0.0000134-0.0000039-0.0000271 0.0000116
           dy -0.0000790-0.0000077 0.0000103-0.0000056-0.0000164-0.0000079
           dz -0.0000693-0.0000242-0.0000038-0.0000094-0.0000128-0.0000024

   ATOM             11 c                          12 h 
                  dx        dy        dz        dx        dy        dz
  11 c     dx  0.5276806
           dy  0.2813605 0.3257635
           dz  0.0135839 0.0171291 0.6669439
  12 h     dx -0.2151474-0.1279199-0.0661688 0.2249589
           dy -0.1281206-0.1253302-0.0473333 0.1417435 0.1252945
           dz -0.0661905-0.0473030-0.0861342 0.0716596 0.0513063 0.0872894
  13 h     dx -0.0000096 0.0000204 0.0000023-0.0000104-0.0000135 0.0000062
           dy -0.0000337-0.0000240 0.0000196 0.0000112 0.0000117 0.0000023
           dz  0.0000002 0.0000125-0.0000219-0.0000050-0.0000108 0.0000032
  14 h     dx  0.0000293-0.0000042 0.0000024-0.0000054 0.0000083-0.0000016
           dy  0.0000452 0.0000140-0.0000264 0.0000082 0.0000157-0.0000046
           dz -0.0000039-0.0000091 0.0000096 0.0000015 0.0000036 0.0000022
  15 c     dx -0.0001689-0.0000504 0.0001585 0.0000043 0.0000190-0.0000069
           dy  0.0000264 0.0002240-0.0000946-0.0000091-0.0000128-0.0000061
           dz  0.0000485-0.0000057-0.0000161-0.0000117 0.0000352 0.0000063
  16 c     dx  0.0000765-0.0000359 0.0000097 0.0000294 0.0000452-0.0000015
           dy -0.0000345-0.0001503 0.0003222-0.0000057 0.0000147 0.0000086
           dz -0.0000199-0.0002750 0.0001138-0.0000002 0.0000203 0.0000036
  17 c     dx -0.0001327-0.0000098 0.0001080-0.0000182-0.0000835 0.0000253
           dy  0.0002131-0.0000175-0.0000851-0.0000284-0.0000188 0.0000050
           dz -0.0000832 0.0000712 0.0001133-0.0000160-0.0001222-0.0000110
  18 c     dx  0.0001046-0.0000701 0.0003193 0.0000122 0.0000475 0.0000272
           dy  0.0000805-0.0001328-0.0000695-0.0000009 0.0000197 0.0000058
           dz  0.0001357 0.0002239-0.0004587 0.0000152-0.0000002-0.0000145
  19 h     dx  0.0002427 0.0000373-0.0000821-0.0000095 0.0000138-0.0000115
           dy -0.0000511-0.0000329-0.0000263 0.0000000-0.0000344 0.0000014
           dz  0.0001388-0.0000202-0.0000225 0.0000004 0.0000617 0.0000196
  20 h     dx  0.0000221-0.0000025 0.0000110-0.0000053 0.0000047 0.0000020
           dy  0.0000284 0.0000124 0.0000398 0.0000025 0.0000145 0.0000060
           dz  0.0000155 0.0000090-0.0000010-0.0000023 0.0000021-0.0000017
  21 c     dx -0.0000662 0.0000091-0.0002637 0.0000105-0.0000230-0.0000353
           dy -0.0000054 0.0001163 0.0000674-0.0000108-0.0000084-0.0000208
           dz -0.0000306-0.0000146 0.0000372 0.0000040 0.0000664 0.0000251
  22 c     dx  0.0000403-0.0000826-0.0001555 0.0000037 0.0000111 0.0000110
           dy  0.0000730 0.0001181-0.0004644-0.0000073-0.0000046-0.0000205
           dz -0.0000289 0.0000002-0.0000556 0.0000108-0.0000154-0.0000155
  23 h     dx  0.0001165-0.0000026 0.0002370-0.0000146-0.0000026-0.0000097
           dy -0.0000904-0.0000007-0.0000175 0.0000122-0.0000128-0.0000048
           dz -0.0000689 0.0000333-0.0000591-0.0000037-0.0000555-0.0000131
  24 h     dx -0.0000117 0.0000164-0.0000562-0.0000042-0.0000045-0.0000143
           dy  0.0000019-0.0000131 0.0000267 0.0000127 0.0000106 0.0000157
           dz  0.0000266-0.0000067 0.0000367 0.0000040 0.0000114 0.0000121

   ATOM             13 h                          14 h 
                  dx        dy        dz        dx        dy        dz
  13 h     dx  0.0505737
           dy  0.0171402 0.0368101
           dz -0.0307750-0.0148984 0.3504971
  14 h     dx -0.0005202 0.0022914-0.0003063 0.2158988
           dy  0.0023024-0.0021910-0.0001026 0.1325007 0.1167808
           dz  0.0005242 0.0004610 0.0009632-0.0889044-0.0610977 0.1048445
  15 c     dx -0.0543135-0.0127259 0.0283854-0.0120832-0.0099196-0.0153857
           dy -0.0125819-0.0441559 0.0138389-0.0096313-0.0049095-0.0106643
           dz  0.0284462 0.0137568-0.3290652 0.0107693 0.0076331 0.0116618
  16 c     dx  0.0058445 0.0028127 0.0044093-0.2067788-0.1195833 0.0820265
           dy  0.0022399 0.0036878 0.0027707-0.1193877-0.1174782 0.0564627
           dz -0.0218420-0.0154828-0.0148547 0.0820018 0.0564886-0.1023314
  17 c     dx  0.0016870-0.0006840-0.0009419 0.0009979-0.0046591-0.0027885
           dy -0.0000509 0.0025339-0.0009495-0.0046724 0.0042421-0.0020687
           dz  0.0251911 0.0173463-0.0089096-0.0037512-0.0026874-0.0018593
  18 c     dx -0.0002163-0.0055147-0.0032678 0.0004504-0.0005175 0.0254694
           dy -0.0055389 0.0037395-0.0024363-0.0009996 0.0014810 0.0177340
           dz -0.0022838-0.0017941-0.0000283-0.0006374-0.0006298-0.0073329
  19 h     dx -0.0005545 0.0024522 0.0002189-0.0006703-0.0006482-0.0008523
           dy  0.0023421-0.0021849 0.0002549-0.0006293-0.0001829-0.0006044
           dz -0.0006023-0.0002619 0.0008805 0.0005889 0.0003931 0.0004046
  20 h     dx  0.0001991-0.0000309 0.0002604-0.0006786 0.0021440-0.0004784
           dy -0.0000434 0.0002282 0.0001672 0.0021551-0.0022496-0.0002743
           dz -0.0011761-0.0008432-0.0008970 0.0003337 0.0003167 0.0012191
  21 c     dx -0.0012265-0.0060097 0.0023239 0.0000897 0.0005037-0.0006335
           dy -0.0061075 0.0031813 0.0015265 0.0005665-0.0003778-0.0004450
           dz  0.0013696 0.0009879 0.0012743-0.0006596-0.0004159-0.0009949
  22 c     dx -0.0010945-0.0003038-0.0001898 0.0038098-0.0026140-0.0003818
           dy -0.0002537-0.0009672-0.0001031-0.0025762 0.0056192-0.0005068
           dz -0.0002052-0.0001242 0.0007499 0.0005886 0.0001339-0.0061212
  23 h     dx -0.0000260-0.0001832-0.0000937-0.0004887 0.0006306 0.0000613
           dy -0.0001179 0.0001115-0.0000890 0.0006046-0.0008976 0.0000593
           dz  0.0013410 0.0009128-0.0005937 0.0000676 0.0000543 0.0001191
  24 h     dx -0.0003458 0.0007080 0.0000104-0.0000188-0.0001727 0.0013316
           dy  0.0007108-0.0008588 0.0000275-0.0002060 0.0001647 0.0009319
           dz  0.0000186 0.0000273-0.0000806-0.0001015-0.0000820-0.0005867

   ATOM             15 c                          16 c 
                  dx        dy        dz        dx        dy        dz
  15 c     dx  0.4862838
           dy  0.2500497 0.3066915
           dz -0.0113752 0.0032024 0.7318185
  16 c     dx -0.1930490-0.0959173-0.1065441 0.5264390
           dy -0.0950552-0.1262636-0.0767228 0.2789517 0.3231602
           dz -0.0545287-0.0407383-0.2007171-0.0250013-0.0090404 0.6711096
  17 c     dx -0.2220584-0.1125433 0.0882782-0.0354167-0.0301026-0.0295241
           dy -0.1139542-0.1396005 0.0604066-0.0300839-0.0142411-0.0202163
           dz  0.0359893 0.0239772-0.1593679 0.0064988 0.0050171 0.0609213
  18 c     dx  0.0315317 0.0171432-0.0175263-0.1061163-0.0333867-0.0043845
           dy  0.0167997 0.0181641-0.0130750-0.0326013-0.0815989-0.0073310
           dz -0.0538613-0.0384472-0.0394530 0.0471860 0.0287994-0.3300050
  19 h     dx -0.0113974-0.0104366-0.0165047-0.0002957-0.0054275 0.0033921
           dy -0.0095548-0.0044681-0.0115104-0.0052546 0.0035824 0.0022138
           dz  0.0095416 0.0069664 0.0113292 0.0025060 0.0015306-0.0001264
  20 h     dx  0.0035140-0.0028253 0.0010895 0.0050597 0.0022305 0.0034757
           dy -0.0028389 0.0055759 0.0006102 0.0019061 0.0032729 0.0022290
           dz  0.0020766 0.0012399-0.0056821-0.0226616-0.0161043-0.0136836
  21 c     dx  0.0154000 0.0058580 0.0294324-0.0092291-0.0005263-0.0195320
           dy  0.0064552 0.0123125 0.0207011-0.0005222-0.0090320-0.0147700
           dz  0.0658962 0.0450923-0.0151830-0.0192760-0.0142621-0.0550491
  22 c     dx -0.0464370-0.0264261-0.0065231 0.0144738 0.0062116 0.0655859
           dy -0.0264209-0.0267862-0.0045194 0.0055070 0.0119256 0.0456994
           dz -0.0060402-0.0040008-0.0001998 0.0292929 0.0203638-0.0154243
  23 h     dx  0.0037970-0.0026288 0.0005823 0.0001017 0.0005266-0.0006157
           dy -0.0025161 0.0054329 0.0000469 0.0004689-0.0002835-0.0004156
           dz -0.0003615-0.0004512-0.0060936-0.0006098-0.0004273-0.0009847
  24 h     dx -0.0010582-0.0002725-0.0002037-0.0012394-0.0060598 0.0013373
           dy -0.0003464-0.0009052-0.0001389-0.0060136 0.0031983 0.0009181
           dz -0.0002252-0.0001426 0.0007424 0.0023087 0.0015762 0.0013054

   ATOM             17 c                          18 c 
                  dx        dy        dz        dx        dy        dz
  17 c     dx  0.5140011
           dy  0.2723139 0.3280214
           dz  0.0236041 0.0282187 0.6891135
  18 c     dx -0.0186072-0.0066775 0.0260721 0.5166737
           dy -0.0066325-0.0125339 0.0177606 0.2717753 0.3203843
           dz  0.0263390 0.0183737-0.0419284 0.0241209 0.0251963 0.6852396
  19 h     dx -0.1658348-0.0957051-0.1054498-0.0002193 0.0004007 0.0008120
           dy -0.0964618-0.1073282-0.0791968 0.0003321-0.0004819 0.0005538
           dz -0.1055810-0.0787464-0.1569533 0.0008069 0.0005712-0.0005823
  20 h     dx -0.0002341 0.0003894 0.0008583-0.1678801-0.0945743-0.1063347
           dy  0.0003429-0.0005242 0.0005581-0.0947652-0.1024659-0.0763556
           dz  0.0008262 0.0005877-0.0005722-0.1063744-0.0763101-0.1566214
  21 c     dx -0.1069518-0.0320892 0.0477179-0.0352115-0.0296920 0.0061494
           dy -0.0330398-0.0845814 0.0299219-0.0307913-0.0139989 0.0052579
           dz -0.0044238-0.0079160-0.3334061-0.0299608-0.0197154 0.0608930
  22 c     dx  0.0326815 0.0169138-0.0540922-0.2230817-0.1138081 0.0366190
           dy  0.0172526 0.0189177-0.0379126-0.1132790-0.1388767 0.0246093
           dz -0.0175356-0.0134312-0.0392187 0.0887670 0.0606099-0.1595016
  23 h     dx  0.0009451-0.0015288-0.0006032 0.0009841-0.0046487-0.0036877
           dy -0.0010440 0.0022488-0.0006248-0.0044256 0.0040431-0.0026455
           dz  0.0252725 0.0181011-0.0074799-0.0027882-0.0020064-0.0018985
  24 h     dx -0.0002520-0.0054928-0.0023210 0.0016310-0.0002910 0.0252029
           dy -0.0054111 0.0035557-0.0018433-0.0004127 0.0022740 0.0174230
           dz -0.0032569-0.0023973-0.0000753-0.0010402-0.0008719-0.0088594

   ATOM             19 h                          20 h 
                  dx        dy        dz        dx        dy        dz
  19 h     dx  0.1710235
           dy  0.1076395 0.1048236
           dz  0.1139312 0.0855776 0.1640974
  20 h     dx -0.0004471 0.0006165-0.0001125 0.1736443
           dy  0.0006394-0.0008742-0.0000385 0.1057946 0.1003033
           dz -0.0001025-0.0000464 0.0000712 0.1151754 0.0827525 0.1636703
  21 c     dx  0.0054372 0.0013741-0.0224002-0.0003076-0.0054403 0.0024639
           dy  0.0018511 0.0039732-0.0164866-0.0054313 0.0036846 0.0016096
           dz  0.0035173 0.0021724-0.0138114 0.0034452 0.0022008-0.0000768
  22 c     dx  0.0035265-0.0027581 0.0020180-0.0117012-0.0095423 0.0094440
           dy -0.0028798 0.0053991 0.0011793-0.0100117-0.0045718 0.0067498
           dz  0.0010751 0.0007044-0.0056771-0.0167633-0.0114896 0.0112864
  23 h     dx -0.0008447 0.0022981 0.0002649-0.0006681-0.0006253 0.0005596
           dy  0.0022669-0.0023094 0.0003247-0.0006410-0.0001836 0.0003976
           dz -0.0004315-0.0002606 0.0012303-0.0008845-0.0005944 0.0003988
  24 h     dx  0.0001893 0.0000040-0.0011740-0.0004944 0.0023691-0.0005563
           dy -0.0000125 0.0001863-0.0008363 0.0023705-0.0022134-0.0003282
           dz  0.0002530 0.0001759-0.0009044 0.0002824 0.0002202 0.0008855

   ATOM             21 c                          22 c 
                  dx        dy        dz        dx        dy        dz
  21 c     dx  0.5242542
           dy  0.2794352 0.3332101
           dz -0.0255419-0.0116611 0.6744371
  22 c     dx -0.1927951-0.0947178-0.0537345 0.4865426
           dy -0.0948033-0.1283594-0.0401432 0.2499526 0.3079666
           dz -0.1059868-0.0767583-0.2003844-0.0104793-0.0004975 0.7318338
  23 h     dx -0.2044617-0.1207200 0.0814504-0.0116081-0.0101451 0.0105572
           dy -0.1216660-0.1233674 0.0585594-0.0100852-0.0045710 0.0076160
           dz  0.0815422 0.0582325-0.1025332-0.0154227-0.0109444 0.0116374
  24 h     dx  0.0060183 0.0022291-0.0218060-0.0540753-0.0126224 0.0268991
           dy  0.0023846 0.0042294-0.0154285-0.0128206-0.0446579 0.0165130
           dz  0.0042859 0.0029296-0.0149020 0.0269483 0.0164388-0.3291912

   ATOM             23 h                          24 h 
                  dx        dy        dz        dx        dy        dz
  23 h     dx  0.2127130
           dy  0.1348005 0.1221497
           dz -0.0880978-0.0631603 0.1052777
  24 h     dx -0.0006187 0.0023056 0.0005532 0.0502688
           dy  0.0024013-0.0021839 0.0004021 0.0173542 0.0371478
           dz -0.0002432-0.0001295 0.0009666-0.0292436-0.0177680 0.3506061
 

   *** projected hessian written onto $hessian (projected), file=<hessian> ***

 dipole moment in principle axis system (a.u.) :
     0.0006764384     0.0001015861     0.0002860618
 norm :  7.414310613459910E-004

 rotational constants b for rotations around axis of inertia
 and optical intensities for (1 <-- 0) transition

   b   :     0.0207375150     0.0545781281     0.0219302475   (cm**(-1))
   b   :         621.6951        1636.2111         657.4523     (MHz)
  int. :     0.0000004576     0.0000000103     0.0000000818     (a.u.)

   x   :     0.9989865156    -0.0163644437    -0.0419302584
   y   :     0.0157617086     0.9997682231    -0.0146652189
   z   :     0.0421605281     0.0139894634     0.9990129052

   ***  normal modes written onto $vibrational normal modes, file=<vib_normal_modes>  ***

   ***  vibrational spectroscopic data written onto$vibrational spectrum   
        file=<vibspectrum>  ***

          ---------------------------------------------------
          NORMAL MODES and VIBRATIONAL FREQUENCIES (cm**(-1))
          ---------------------------------------------------

 imaginary wave numbers indicate a negative curvature of the energy surface.
 zero frequency modes have no physical meaning except being generators of
 translations and rotations. each vibrational normal mode - given in terms of
 cartesian displacement vectors of all atoms - has been normalized to unity.
 to obtain mass-weigthed normal coordinates in a.u. divide the tabulated
 modes by sqrt(reduced mass * 1822.88853).
 band intensities or cross sections refer to independent non-degenerate normal
 modes, that is, the intensities of degenerate modes have yet to be added.
 dDIP/dQ is the normal mode derivative of the dipole moment.


       mode               1        2        3        4        5        6

     frequency           0.00     0.00     0.00     0.00     0.00     0.00

     symmetry                                                             

        IR                -        -        -        -        -        - 
|dDIP/dQ|   (a.u.)     0.0000   0.0000   0.0000   0.0000   0.0000   0.0000
intensity (km/mol)       0.00     0.00     0.00     0.00     0.00     0.00
intensity (  %   )       0.00     0.00     0.00     0.00     0.00     0.00
 
       RAMAN              -        -        -        -        -        - 
 
  1   h           x  -0.07750 -0.00685 -0.09729  0.14180 -0.32922 -0.02785
                  y   0.19309  0.11527  0.13158  0.02080 -0.05852  0.09929
                  z  -0.04582 -0.09363  0.03116 -0.11551 -0.01012 -0.20770
  2   c           x  -0.08533  0.05068 -0.05009  0.13983 -0.22556 -0.05836
                  y   0.18178  0.10192  0.07751  0.00418 -0.05138  0.03368
                  z  -0.04310 -0.10143  0.03021 -0.11309 -0.02810 -0.19439
  3   c           x  -0.09495  0.07825 -0.03050  0.08608 -0.17504 -0.04409
                  y   0.18618  0.09089  0.05500  0.07209 -0.05959 -0.03115
                  z  -0.02709 -0.15007  0.02141 -0.09979 -0.13828 -0.11571
  4   h           x  -0.09468  0.04228 -0.06239  0.04570 -0.23920 -0.00224
                  y   0.20085  0.09567  0.09151  0.14120 -0.07306 -0.01590
                  z  -0.01727 -0.17982  0.01606 -0.09163 -0.20569 -0.06752
  5   c           x  -0.10503  0.15205  0.03003  0.08319 -0.04206 -0.08302
                  y   0.17166  0.07378 -0.01435  0.05062 -0.05041 -0.11522
                  z  -0.02356 -0.15990  0.02053 -0.09653 -0.16118 -0.09844
  6   h           x  -0.11264  0.17352  0.04523  0.04032 -0.00270 -0.07135
                  y   0.17501  0.06526 -0.03180  0.10281 -0.05671 -0.16525
                  z  -0.01098 -0.19709  0.01480 -0.08573 -0.24614 -0.03675
  7   c           x  -0.10549  0.19833  0.07101  0.13410  0.04052 -0.13629
                  y   0.15273  0.06767 -0.06126 -0.03877 -0.03301 -0.13452
                  z  -0.03605 -0.12109  0.02841 -0.10659 -0.07391 -0.15989
  8   h           x  -0.11341  0.25588  0.11819  0.13138  0.14424 -0.16640
                  y   0.14138  0.05436 -0.11530 -0.05579 -0.02581 -0.19989
                  z  -0.03325 -0.12847  0.02822 -0.10384 -0.09143 -0.14621
  9   c           x  -0.09589  0.17085  0.05148  0.18774 -0.00983 -0.15055
                  y   0.14831  0.07869 -0.03883 -0.10681 -0.02477 -0.06973
                  z  -0.05206 -0.07236  0.03735 -0.11983  0.03638 -0.23853
 10   h           x  -0.09628  0.20695  0.08344  0.22722  0.05458 -0.19197
                  y   0.13355  0.07394 -0.07540 -0.17658 -0.01119 -0.08474
                  z  -0.06177 -0.04202  0.04370 -0.12757  0.10449 -0.28630
 11   c           x  -0.08581  0.09696 -0.00912  0.19056 -0.14297 -0.11153
                  y   0.16284  0.09583  0.03061 -0.08536 -0.03395  0.01447
                  z  -0.05558 -0.06248  0.03832 -0.12305  0.05936 -0.25578
 12   h           x  -0.07833  0.07551 -0.02437  0.23230 -0.18227 -0.12259
                  y   0.15940  0.10443  0.04812 -0.13836 -0.02754  0.06499
                  z  -0.06805 -0.02450  0.04532 -0.13335  0.14529 -0.31702
 13   h           x  -0.11610  0.01659 -0.09631 -0.17755 -0.28198  0.13402
                  y   0.19350  0.11510  0.13178  0.02391 -0.05900  0.09800
                  z   0.00652 -0.04568  0.24786  0.00400 -0.05072  0.03232
 14   h           x  -0.13575  0.10195 -0.03043 -0.25268 -0.12704  0.12827
                  y   0.19013  0.08897  0.05622  0.10286 -0.06429 -0.04492
                  z   0.03066 -0.11855  0.23512  0.02420 -0.21608  0.15087
 15   c           x  -0.12231  0.07389 -0.04849 -0.16523 -0.17896  0.09582
                  y   0.17943  0.10315  0.07700 -0.01449 -0.04854  0.04236
                  z   0.00513 -0.04034  0.24997  0.00327 -0.03943  0.02541
 16   c           x  -0.13333  0.12183 -0.01147 -0.20729 -0.09193  0.09251
                  y   0.17755  0.08846  0.03454  0.02999 -0.05153 -0.03801
                  z   0.01868 -0.08140  0.24262  0.01454 -0.13249  0.09196
 17   c           x  -0.11919  0.09941 -0.02415 -0.10676 -0.13391  0.04982
                  y   0.16329  0.10248  0.04917 -0.10790 -0.03218  0.05115
                  z  -0.01027  0.00723  0.25938 -0.00922  0.06773 -0.05029
 18   c           x  -0.14126  0.19539  0.04995 -0.19108  0.04031  0.04326
                  y   0.15949  0.07310 -0.03581 -0.01915 -0.03813 -0.10957
                  z   0.01685 -0.07472  0.24496  0.01344 -0.11818  0.08289
 19   h           x  -0.11049  0.06203 -0.05296 -0.07303 -0.20177  0.05188
                  y   0.16483  0.11387  0.08221 -0.14188 -0.02995  0.11336
                  z  -0.02093  0.03856  0.26403 -0.01843  0.13943 -0.10254
 20   h           x  -0.14984  0.23278  0.07883 -0.22381  0.10818  0.04064
                  y   0.15801  0.06164 -0.06893  0.01547 -0.04045 -0.17221
                  z   0.02740 -0.10671  0.23923  0.02221 -0.19067  0.13471
 21   c           x  -0.12710  0.17286  0.03719 -0.09055 -0.00184  0.00062
                  y   0.14526  0.08714 -0.02109 -0.15697 -0.01880 -0.02031
                  z  -0.01210  0.01388  0.26169 -0.01033  0.08201 -0.05937
 22   c           x  -0.13815  0.22086  0.07424 -0.13280  0.08528 -0.00261
                  y   0.14335  0.07245 -0.06358 -0.11266 -0.02176 -0.10064
                  z   0.00147 -0.02704  0.25458  0.00103 -0.01088  0.00726
 23   h           x  -0.12455  0.19262  0.05610 -0.04413  0.03302 -0.03562
                  y   0.13278  0.08659 -0.04271 -0.22904 -0.00616 -0.01373
                  z  -0.02418  0.05032  0.26803 -0.02045  0.16473 -0.11870
 24   h           x  -0.14427  0.27810  0.12206 -0.11978  0.18819 -0.04116
                  y   0.12932  0.06047 -0.11836 -0.15068 -0.01136 -0.15647
                  z   0.00000 -0.02207  0.25598  0.00000  0.00000  0.00000

reduced mass(g/mol)     6.452    5.904    5.879    5.623    4.236    5.253


       mode               7        8        9       10       11       12

     frequency           4.73     6.15    38.86    42.83    63.97    73.63

     symmetry            a        a        a        a        a        a   

        IR               YES      YES      YES      YES      YES      YES
|dDIP/dQ|   (a.u.)     0.0000   0.0000   0.0001   0.0004   0.0002   0.0000
intensity (km/mol)       0.00     0.00     0.01     0.25     0.08     0.00
intensity (  %   )       0.00     0.00     0.01     0.10     0.03     0.00
 
       RAMAN             YES      YES      YES      YES      YES      YES
 
  1   h           x  -0.03418  0.23352  0.02056 -0.04865 -0.19593 -0.04172
                  y  -0.32005 -0.06005 -0.20929  0.02478  0.27323  0.03745
                  z  -0.01592 -0.07771 -0.00090 -0.00192 -0.00508 -0.00127
  2   c           x  -0.01874  0.13196 -0.00185 -0.02971 -0.11001 -0.05861
                  y  -0.17997 -0.03391 -0.17971 -0.00003  0.15133  0.06213
                  z  -0.03610 -0.06427 -0.00090 -0.00193 -0.00378 -0.00152
  3   c           x  -0.01182  0.09122 -0.10193  0.06604 -0.08168 -0.14350
                  y  -0.12385 -0.02485 -0.03927 -0.13425  0.11048  0.18295
                  z  -0.15204  0.02018 -0.00030 -0.00232 -0.00325 -0.00313
  4   h           x  -0.02094  0.16144 -0.15948  0.12235 -0.14558 -0.19570
                  y  -0.22017 -0.04413  0.04255 -0.21398  0.20030  0.25445
                  z  -0.22361  0.07162  0.00052 -0.00308 -0.00267 -0.00370
  5   c           x   0.00888 -0.03888 -0.12969  0.09022  0.02625 -0.16572
                  y   0.05489  0.00859 -0.00441 -0.16462 -0.04102  0.21514
                  z  -0.17832  0.03718 -0.00019 -0.00212 -0.00111 -0.00458
  6   h           x   0.01204 -0.07137 -0.21096  0.16662  0.04853 -0.23829
                  y   0.10142  0.01680  0.10590 -0.26792 -0.07204  0.31408
                  z  -0.27015  0.10180 -0.00045 -0.00157  0.00083 -0.00687
  7   c           x   0.02294 -0.12826 -0.05750  0.02000  0.10784 -0.10364
                  y   0.17632  0.03245 -0.10954 -0.06283 -0.15633  0.12707
                  z  -0.08878 -0.03038 -0.00066 -0.00189  0.00077 -0.00352
  8   h           x   0.03718 -0.23045 -0.07938  0.04014  0.19420 -0.12383
                  y   0.31822  0.05968 -0.08360 -0.08715 -0.27940  0.15499
                  z  -0.11051 -0.01784 -0.00063 -0.00186  0.00374 -0.00408
  9   c           x   0.01691 -0.08739  0.04241 -0.07576  0.08068 -0.01818
                  y   0.11832  0.02267 -0.25082  0.07178 -0.11851  0.00533
                  z   0.02754 -0.11477 -0.00101 -0.00190  0.00012 -0.00068
 10   h           x   0.02765 -0.15708  0.10010 -0.13095  0.14539  0.03120
                  y   0.21321  0.04138 -0.33554  0.15261 -0.21002 -0.06466
                  z   0.09760 -0.16729 -0.00141 -0.00164  0.00182  0.00062
 11   c           x  -0.00461  0.04266  0.07065 -0.10136 -0.02930  0.00398
                  y  -0.05918 -0.01037 -0.28689  0.10441  0.03706 -0.02718
                  z   0.05430 -0.13163 -0.00124 -0.00174 -0.00191 -0.00063
 12   h           x  -0.00983  0.07440  0.15003 -0.17652 -0.05152  0.07121
                  y  -0.10353 -0.01759 -0.39860  0.21034  0.06835 -0.12287
                  z   0.14497 -0.19750 -0.00157 -0.00164 -0.00191  0.00090
 13   h           x   0.21327 -0.10112  0.01163 -0.00595  0.20622  0.06953
                  y  -0.13169 -0.28608  0.17175  0.05042 -0.29295 -0.07768
                  z   0.07726  0.02154  0.00016  0.00174  0.00631  0.00235
 14   h           x   0.09086 -0.03694 -0.03968 -0.19639  0.09064 -0.06658
                  y  -0.06134 -0.12051  0.24488  0.31924 -0.12580  0.11645
                  z   0.15581 -0.17888 -0.00059 -0.00086  0.00181 -0.00133
 15   c           x   0.11860 -0.05825  0.01994 -0.00116  0.11575  0.07411
                  y  -0.07259 -0.15945  0.15892  0.04080 -0.16207 -0.08470
                  z   0.07044  0.03259  0.00038  0.00179  0.00382  0.00253
 16   c           x   0.04999 -0.02179 -0.00867 -0.10780  0.05116 -0.00134
                  y  -0.03345 -0.06722  0.20057  0.19225 -0.06915  0.02336
                  z   0.11481 -0.07984 -0.00000  0.00031  0.00145  0.00012
 17   c           x   0.06625 -0.03849  0.05825  0.11103  0.06589  0.15623
                  y  -0.03713 -0.09164  0.10436 -0.11897 -0.08991 -0.20184
                  z   0.01767  0.15937  0.00112  0.00357  0.00374  0.00459
 18   c           x  -0.07043  0.03525  0.00102 -0.10078 -0.06514  0.00542
                  y   0.04090  0.09268  0.18639  0.18050  0.09819  0.01358
                  z   0.10676 -0.06490  0.00026  0.00054 -0.00108  0.00092
 19   h           x   0.12061 -0.06542  0.08142  0.19496  0.11754  0.21857
                  y  -0.06885 -0.16522  0.07230 -0.23439 -0.16362 -0.28784
                  z  -0.01553  0.24796  0.00166  0.00589  0.00752  0.00695
 20   h           x  -0.12391  0.06375 -0.02259 -0.18414 -0.11754 -0.05424
                  y   0.07159  0.16486  0.22001  0.29899  0.17349  0.09890
                  z   0.14130 -0.15251 -0.00017 -0.00082 -0.00263 -0.00041
 21   c           x  -0.05461  0.01773  0.06813  0.11715 -0.04759  0.16319
                  y   0.03821  0.06939  0.09000 -0.12931  0.07216 -0.21159
                  z   0.00954  0.17417  0.00156  0.00355  0.00130  0.00382
 22   c           x  -0.12310  0.05438  0.03939  0.01171 -0.11388  0.08826
                  y   0.07719  0.16146  0.13065  0.01924  0.16789 -0.10455
                  z   0.05421  0.06235  0.00103  0.00211 -0.00098  0.00207
 23   h           x  -0.09699  0.03084  0.09974  0.20641 -0.08673  0.23199
                  y   0.06772  0.12466  0.04605 -0.25267  0.12750 -0.30588
                  z  -0.03010  0.27390  0.00183  0.00390  0.00311  0.00454
 24   h           x  -0.21870  0.09673  0.04675  0.01704 -0.20497  0.09545
                  y   0.13756  0.28876  0.12070  0.01196  0.29955 -0.11374
                  z   0.04847  0.07448  0.00117  0.00227 -0.00200  0.00228

reduced mass(g/mol)     3.894    3.791    5.131    3.708    3.618    4.660


       mode              13       14       15       16       17       18

     frequency         403.91   404.19   405.88   407.06   611.16   611.57

     symmetry            a        a        a        a        a        a   

        IR               YES      YES      YES      YES      YES      YES
|dDIP/dQ|   (a.u.)     0.0001   0.0001   0.0000   0.0000   0.0001   0.0001
intensity (km/mol)       0.02     0.02     0.00     0.00     0.02     0.01
intensity (  %   )       0.01     0.01     0.00     0.00     0.01     0.00
 
       RAMAN             YES      YES      YES      YES      YES      YES
 
  1   h           x  -0.08728 -0.18396  0.21603  0.05444  0.12563 -0.13029
                  y   0.12370  0.26327 -0.30737 -0.07899  0.08897 -0.08990
                  z  -0.00146 -0.00236  0.00330  0.00065 -0.04940 -0.15874
  2   c           x  -0.04123 -0.08333  0.09946  0.02415 -0.08671  0.03402
                  y   0.05781  0.11936 -0.14129 -0.03460 -0.06140  0.02122
                  z  -0.00067 -0.00085  0.00151 -0.00002  0.00433 -0.20082
  3   c           x  -0.06080  0.07900 -0.03311 -0.09194 -0.11047 -0.01720
                  y   0.08602 -0.11044  0.04620  0.12921 -0.07692 -0.01411
                  z  -0.00086  0.00148 -0.00087 -0.00203  0.18188 -0.12754
  4   h           x  -0.13510  0.17118 -0.07555 -0.20138 -0.17072  0.12995
                  y   0.19065 -0.23899  0.10340  0.28225 -0.12566  0.09658
                  z  -0.00017  0.00162 -0.00222 -0.00182  0.09336  0.07975
  5   c           x   0.10182  0.00728 -0.06671  0.06790  0.14237 -0.20567
                  y  -0.14322 -0.01006  0.09355 -0.09536  0.10302 -0.14749
                  z   0.00223 -0.00032 -0.00135  0.00105  0.12007 -0.05215
  6   h           x   0.22688  0.01386 -0.14952  0.15110  0.17988 -0.18614
                  y  -0.31486 -0.01869  0.20606 -0.21007  0.12873 -0.13333
                  z   0.00660 -0.00076 -0.00235  0.00511 -0.02115 -0.12188
  7   c           x  -0.03979 -0.08496  0.09896  0.02423  0.08642 -0.03460
                  y   0.05687  0.11974 -0.13976 -0.03399  0.06189 -0.01987
                  z  -0.00123 -0.00228  0.00255  0.00034 -0.00467  0.20082
  8   h           x  -0.08851 -0.18668  0.21620  0.05404 -0.12572  0.12480
                  y   0.12749  0.26501 -0.30677 -0.07427 -0.08868  0.09914
                  z  -0.00323 -0.00586  0.00658  0.00108  0.04960  0.15817
  9   c           x  -0.06017  0.07610 -0.03251 -0.09221  0.11143  0.01738
                  y   0.08537 -0.11003  0.04684  0.13136  0.07523  0.01382
                  z  -0.00151  0.00195 -0.00087 -0.00223 -0.18180  0.12700
 10   h           x  -0.12943  0.16574 -0.07173 -0.19943  0.17576 -0.13224
                  y   0.18462 -0.23742  0.10257  0.28398  0.11718 -0.09479
                  z  -0.00259  0.00407 -0.00170 -0.00446 -0.09398 -0.08040
 11   c           x   0.09965  0.00658 -0.06619  0.06760 -0.14286  0.20643
                  y  -0.14329 -0.00997  0.09449 -0.09610 -0.10170  0.14586
                  z   0.00185  0.00058 -0.00151  0.00098 -0.11991  0.05202
 12   h           x   0.21564  0.01386 -0.14265  0.14618 -0.18234  0.18644
                  y  -0.30828 -0.01966  0.20290 -0.20794 -0.12477  0.13129
                  z   0.00438 -0.00042 -0.00266  0.00287  0.02153  0.12288
 13   h           x  -0.17372 -0.12517 -0.19680  0.07957 -0.13308 -0.11506
                  y   0.24961  0.17839  0.28048 -0.11532 -0.09692 -0.07457
                  z  -0.00528 -0.00352 -0.00546  0.00255 -0.04823  0.13907
 14   h           x  -0.00899  0.21623  0.14913  0.13668  0.19079  0.16914
                  y   0.01305 -0.31017 -0.21289 -0.19501  0.12956  0.11504
                  z   0.00040  0.00488  0.00354  0.00314  0.00987 -0.11834
 15   c           x  -0.07871 -0.05849 -0.09067  0.03594  0.09207  0.04781
                  y   0.11292  0.08270  0.12896 -0.05132  0.06517  0.03627
                  z  -0.00243 -0.00166 -0.00237  0.00142 -0.01652  0.16269
 16   c           x  -0.00362  0.10006  0.06949  0.06323  0.13687  0.18383
                  y   0.00469 -0.14441 -0.09953 -0.09004  0.09311  0.12752
                  z  -0.00040  0.00235  0.00155  0.00179 -0.14342 -0.07696
 17   c           x   0.08459 -0.04395  0.02127 -0.09948  0.13286  0.00571
                  y  -0.11885  0.06266 -0.02972  0.14023  0.09757  0.00574
                  z   0.00189 -0.00143  0.00042 -0.00194  0.17773  0.12635
 18   c           x   0.08163 -0.04351  0.02046 -0.09941 -0.13377 -0.00556
                  y  -0.11796  0.06184 -0.02964  0.14202 -0.09583 -0.00587
                  z   0.00155 -0.00066  0.00047 -0.00188 -0.17754 -0.12582
 19   h           x   0.18393 -0.09884  0.04895 -0.21916  0.18655  0.12378
                  y  -0.25718  0.14004 -0.06641  0.30718  0.13657  0.08893
                  z   0.00593 -0.00448  0.00005 -0.00713  0.08630 -0.06917
 20   h           x   0.17715 -0.09416  0.04500 -0.21548 -0.18963 -0.12572
                  y  -0.25422  0.13498 -0.06449  0.30769 -0.13089 -0.08757
                  z   0.00343 -0.00238  0.00091 -0.00439 -0.08686  0.07007
 21   c           x  -0.00314  0.10270  0.06988  0.06343 -0.13645 -0.18290
                  y   0.00484 -0.14472 -0.09824 -0.08964 -0.09435 -0.12923
                  z   0.00034  0.00210  0.00172  0.00167  0.14372  0.07717
 22   c           x  -0.07983 -0.05681 -0.09015  0.03610 -0.09217 -0.04814
                  y   0.11316  0.08145  0.12795 -0.05114 -0.06517 -0.03518
                  z  -0.00132 -0.00061 -0.00134  0.00088  0.01617 -0.16276
 23   h           x  -0.01036  0.22632  0.15555  0.13989 -0.18681 -0.16822
                  y   0.01536 -0.31582 -0.21563 -0.19628 -0.13579 -0.11794
                  z   0.00101  0.00255  0.00356  0.00071 -0.00970  0.11744
 24   h           x  -0.17501 -0.12627 -0.19671  0.07903  0.13475  0.11034
                  y   0.24952  0.18157  0.28050 -0.11069  0.09437  0.08281
                  z  -0.00240 -0.00123 -0.00263  0.00150  0.04846 -0.13885

reduced mass(g/mol)     2.915    2.917    2.916    2.918    6.013    6.012


       mode              19       20       21       22       23       24

     frequency         611.99   612.06   682.79   687.72   715.89   715.98

     symmetry            a        a        a        a        a        a   

        IR               YES      YES      YES      YES      YES      YES
|dDIP/dQ|   (a.u.)     0.0000   0.0000   0.0116   0.0000   0.0001   0.0001
intensity (km/mol)       0.00     0.00   238.58     0.00     0.01     0.01
intensity (  %   )       0.00     0.00   100.00     0.00     0.00     0.00
 
       RAMAN             YES      YES      YES      YES      YES      YES
 
  1   h           x  -0.05643  0.05517  0.16373  0.16593 -0.17968  0.07592
                  y  -0.04125  0.03655 -0.23379 -0.23623  0.25608 -0.10856
                  z   0.23739  0.19987  0.00193  0.00221 -0.00294  0.00067
  2   c           x   0.09615  0.02133 -0.01416 -0.01359 -0.11355  0.04727
                  y   0.06886  0.01695  0.02006  0.01900  0.16175 -0.06744
                  z   0.19947  0.20901 -0.00076 -0.00047 -0.00190  0.00027
  3   c           x   0.18408  0.09113 -0.01382 -0.01437  0.11244 -0.04648
                  y   0.12946  0.06505  0.01953  0.01994 -0.15777  0.06547
                  z  -0.14267  0.01507 -0.00056 -0.00024  0.00151 -0.00102
  4   h           x   0.12593 -0.02441  0.16996  0.16633  0.19480 -0.08115
                  y   0.08493 -0.02186 -0.23614 -0.23163 -0.27364  0.11432
                  z  -0.22311 -0.14665  0.00034  0.00073  0.00096 -0.00072
  5   c           x  -0.00255  0.12459 -0.01450 -0.01441 -0.11197  0.04677
                  y  -0.00333  0.08728  0.01982  0.01963  0.15679 -0.06624
                  z  -0.12685 -0.02364 -0.00036 -0.00037 -0.00250  0.00116
  6   h           x  -0.08050  0.07967  0.17139  0.16923 -0.19597  0.08303
                  y  -0.05540  0.05413 -0.23528 -0.23259  0.27223 -0.11594
                  z   0.15848  0.14404  0.00501  0.00511 -0.00557  0.00251
  7   c           x  -0.09520 -0.02076 -0.01413 -0.01447  0.11185 -0.04797
                  y  -0.07101 -0.01852  0.02014  0.02029 -0.15857  0.06759
                  z  -0.19957 -0.20885  0.00011 -0.00005  0.00293 -0.00117
  8   h           x   0.05932 -0.05167  0.16558  0.16458  0.19083 -0.07896
                  y   0.03517 -0.04198 -0.23444 -0.23264 -0.27127  0.11148
                  z  -0.23751 -0.19972  0.00615  0.00573  0.00571 -0.00217
  9   c           x  -0.18524 -0.09112 -0.01384 -0.01316 -0.11415  0.04845
                  y  -0.12741 -0.06413  0.01957  0.01933  0.16312 -0.06906
                  z   0.14272 -0.01483 -0.00002 -0.00026 -0.00241  0.00128
 10   h           x  -0.12550  0.02696  0.16416  0.16689 -0.17452  0.07678
                  y  -0.08326  0.01970 -0.23437 -0.23756  0.24899 -0.10982
                  z   0.22394  0.14685  0.00343  0.00325 -0.00375  0.00148
 11   c           x   0.00249 -0.12485 -0.01359 -0.01438  0.11449 -0.04816
                  y   0.00377 -0.08649  0.01921  0.02123 -0.16347  0.06944
                  z   0.12618  0.02316 -0.00037 -0.00039  0.00241 -0.00071
 12   h           x   0.08135 -0.07722  0.16472  0.16559  0.17483 -0.07242
                  y   0.05554 -0.05668 -0.23437 -0.23493 -0.24928  0.10360
                  z  -0.16015 -0.14481  0.00358  0.00364  0.00381 -0.00075
 13   h           x  -0.07272 -0.03847  0.16368 -0.16477 -0.07875 -0.17822
                  y  -0.05774 -0.01506 -0.23410  0.23515  0.11261  0.25520
                  z  -0.15549  0.28283  0.00549 -0.00520 -0.00157 -0.00513
 14   h           x   0.09750  0.06412  0.16383 -0.16632  0.07077  0.17459
                  y   0.07041  0.04239 -0.23423  0.23701 -0.10107 -0.25027
                  z   0.09750 -0.20713  0.00330 -0.00322  0.00078  0.00423
 15   c           x   0.07295 -0.02546 -0.01392  0.01416 -0.04778 -0.11293
                  y   0.04770 -0.01227  0.01970 -0.01974  0.06815  0.16110
                  z  -0.13545  0.28579  0.00025  0.00001 -0.00075 -0.00321
 16   c           x   0.02603  0.14908 -0.01389  0.01381  0.04864  0.11387
                  y   0.01665  0.10416  0.01965 -0.02051 -0.06910 -0.16381
                  z  -0.11005  0.03394 -0.00004  0.00017  0.00085  0.00278
 17   c           x   0.14968 -0.14059 -0.01416  0.01414  0.04793  0.11152
                  y   0.10805 -0.09973  0.01976 -0.01948 -0.06746 -0.15712
                  z   0.11485  0.00764 -0.00020  0.00042  0.00155  0.00276
 18   c           x  -0.15052  0.14089 -0.01328  0.01356 -0.04731 -0.11405
                  y  -0.10673  0.09823  0.01912 -0.02025  0.06796  0.16355
                  z  -0.11479 -0.00715 -0.00041  0.00031 -0.00110 -0.00224
 19   h           x   0.12853 -0.00707  0.16911 -0.16739  0.07891  0.19436
                  y   0.09097 -0.00429 -0.23511  0.23334 -0.11101 -0.27335
                  z   0.14990 -0.21266  0.00653 -0.00635  0.00314  0.00681
 20   h           x  -0.12734  0.00351  0.16412 -0.16608 -0.07633 -0.17650
                  y  -0.09099  0.00691 -0.23473  0.23700  0.10872  0.25301
                  z  -0.15067  0.21349  0.00386 -0.00405 -0.00112 -0.00392
 21   c           x  -0.02623 -0.14865 -0.01376  0.01450 -0.04719 -0.11173
                  y  -0.01614 -0.10542  0.01913 -0.01993  0.06571  0.15779
                  z   0.11050 -0.03446 -0.00034  0.00028 -0.00103 -0.00218
 22   c           x  -0.07237  0.02476 -0.01439  0.01412  0.04677  0.11219
                  y  -0.04909  0.01449  0.02066 -0.01985 -0.06701 -0.15945
                  z   0.13567 -0.28561 -0.00084  0.00067  0.00049  0.00197
 23   h           x  -0.09699 -0.06781  0.17087 -0.16792 -0.08441 -0.19297
                  y  -0.06995 -0.03900 -0.23608  0.23258  0.11774  0.27040
                  z  -0.09637  0.20584  0.00160 -0.00140 -0.00066 -0.00225
 24   h           x   0.07545  0.03303  0.16403 -0.16517  0.07740  0.19038
                  y   0.05214  0.02406 -0.23368  0.23472 -0.11123 -0.27149
                  z   0.15582 -0.28280  0.00124 -0.00160  0.00074  0.00288

reduced mass(g/mol)     6.008    6.007    1.085    1.087    3.999    3.998


       mode              25       26       27       28       29       30

     frequency         859.95   860.11   861.70   865.25   965.90   966.27

     symmetry            a        a        a        a        a        a   

        IR               YES      YES      YES      YES      YES      YES
|dDIP/dQ|   (a.u.)     0.0001   0.0001   0.0009   0.0012   0.0004   0.0005
intensity (km/mol)       0.03     0.01     1.59     2.74     0.33     0.41
intensity (  %   )       0.01     0.01     0.67     1.15     0.14     0.17
 
       RAMAN             YES      YES      YES      YES      YES      YES
 
  1   h           x  -0.21043  0.07587 -0.07071 -0.22831  0.10201 -0.14663
                  y   0.30213 -0.10730  0.10046  0.32391 -0.14932  0.21223
                  z  -0.00288  0.00027 -0.00161 -0.00339 -0.00007  0.00072
  2   c           x   0.03208 -0.01146  0.01044  0.03424 -0.01720  0.02354
                  y  -0.04520  0.01669 -0.01495 -0.04905  0.02360 -0.03216
                  z   0.00083 -0.00081 -0.00037  0.00055 -0.00218  0.00365
  3   c           x   0.02973  0.02063 -0.02438  0.02195 -0.01317  0.03036
                  y  -0.04214 -0.02797  0.03455 -0.03010  0.01599 -0.03864
                  z   0.00012  0.00028 -0.00093  0.00021  0.00121 -0.00137
  4   h           x  -0.20230 -0.13123  0.16353 -0.14609  0.05474 -0.13277
                  y   0.28017  0.18674 -0.22819  0.20477 -0.07557  0.19115
                  z  -0.00116  0.00161 -0.00042 -0.00038  0.00329 -0.00040
  5   c           x  -0.00079  0.03284 -0.03513 -0.01019  0.02855 -0.04924
                  y   0.00155 -0.04469  0.04923  0.01397 -0.03684  0.06158
                  z  -0.00069  0.00092 -0.00065 -0.00045  0.00136 -0.00216
  6   h           x   0.00991 -0.21512  0.23880  0.06866 -0.13727  0.22969
                  y  -0.01112  0.29611 -0.32721 -0.09481  0.19214 -0.32188
                  z  -0.00352 -0.00733  0.00714  0.00242 -0.00541  0.00638
  7   c           x  -0.03137  0.01302 -0.01195 -0.03356 -0.01108  0.00972
                  y   0.04482 -0.01763  0.01718  0.04724  0.01460 -0.01284
                  z  -0.00066  0.00060  0.00037 -0.00118 -0.00227  0.00239
  8   h           x   0.20785 -0.08191  0.07795  0.22197  0.04446 -0.02997
                  y  -0.29610  0.11973 -0.11088 -0.31422 -0.06656  0.04103
                  z   0.00782 -0.00288  0.00348  0.00701 -0.00001  0.00120
  9   c           x  -0.03120 -0.01985  0.02384 -0.02459 -0.01918  0.04096
                  y   0.04361  0.02739 -0.03427  0.03529  0.02509 -0.05234
                  z  -0.00062  0.00021  0.00073 -0.00024  0.00044 -0.00188
 10   h           x   0.20475  0.12781 -0.16083  0.16345  0.11053 -0.22519
                  y  -0.29321 -0.18322  0.22842 -0.23202 -0.16035  0.32978
                  z   0.00402  0.00333 -0.00330  0.00400  0.00249 -0.00570
 11   c           x   0.00191 -0.03332  0.03699  0.01202  0.03230 -0.05590
                  y  -0.00255  0.04578 -0.05289 -0.01728 -0.04217  0.07349
[...]
                  z  -0.18759  0.20849  0.04118 -0.03619 -0.08619 -0.03647
 22   c           x   0.16744 -0.18319  0.03713 -0.03176 -0.03932 -0.07860
                  y   0.11798 -0.13100  0.02625 -0.02244 -0.02691 -0.05592
                  z   0.02226 -0.02524  0.00574 -0.00494  0.04904 -0.04042
 23   h           x   0.05599 -0.06323 -0.09756  0.08453  0.10881  0.07487
                  y   0.04216 -0.04846 -0.07166  0.06233  0.07982  0.05353
                  z   0.16042 -0.18099 -0.27997  0.24295  0.32818  0.00203
 24   h           x  -0.15269  0.15505 -0.24721  0.21422  0.11712  0.30289
                  y  -0.10913  0.11642 -0.17392  0.15057  0.08312  0.21265
                  z  -0.02393  0.02360 -0.03478  0.03011  0.08341  0.00771

reduced mass(g/mol)     7.152    7.223    1.248    1.248    1.999    2.003


       mode              55       56       57       58       59       60

     frequency        1516.51  1516.60  1635.75  1636.13  1636.51  1636.62

     symmetry            a        a        a        a        a        a   

        IR               YES      YES      YES      YES      YES      YES
|dDIP/dQ|   (a.u.)     0.0009   0.0026   0.0002   0.0000   0.0001   0.0000
intensity (km/mol)       1.47    12.12     0.05     0.00     0.01     0.00
intensity (  %   )       0.61     5.08     0.02     0.00     0.00     0.00
 
       RAMAN             YES      YES      YES      YES      YES      YES
 
  1   h           x  -0.31139 -0.06047  0.04318 -0.24790  0.21152 -0.06922
                  y  -0.21793 -0.04313  0.02934 -0.17453  0.14759 -0.04908
                  z   0.08298 -0.06235 -0.13090  0.02826 -0.07949 -0.09160
  2   c           x   0.08591  0.00312 -0.06737  0.18562 -0.17353  0.02432
                  y   0.06033  0.00146 -0.04901  0.12954 -0.12192  0.01571
                  z  -0.01824 -0.06438 -0.09172 -0.07827  0.02019 -0.10482
  3   c           x  -0.01023  0.06461  0.10957 -0.09971  0.12557  0.04503
                  y  -0.00638  0.04669  0.08046 -0.07017  0.09014  0.03387
                  z   0.07515  0.05573  0.19661  0.02726  0.06549  0.16632
  4   h           x  -0.14061 -0.17054 -0.18194 -0.03232 -0.05589 -0.15805
                  y  -0.10090 -0.12425 -0.13296 -0.02104 -0.04241 -0.11311
                  z  -0.08614 -0.27750 -0.20423  0.13835 -0.19793 -0.10388
  5   c           x  -0.02872 -0.05145 -0.01610  0.10717 -0.09028  0.03139
                  y  -0.02166 -0.03579 -0.01433  0.07410 -0.06427  0.01901
                  z  -0.07043  0.06152 -0.19006 -0.14348  0.02794 -0.20904
  6   h           x  -0.10670  0.03781 -0.12714  0.00873 -0.06301 -0.09690
                  y  -0.07461  0.02204 -0.08685  0.00871 -0.04462 -0.06488
                  z   0.17555 -0.28872  0.18447  0.24250 -0.10758  0.24483
  7   c           x   0.08508  0.00278  0.06906 -0.18591  0.17490 -0.02184
                  y   0.05994  0.00078  0.04992 -0.13019  0.12318 -0.01367
                  z  -0.01993 -0.06453  0.09193  0.07792 -0.02037  0.10454
  8   h           x  -0.31119 -0.05939 -0.04874  0.24669 -0.21455  0.06312
                  y  -0.21795 -0.04295 -0.03213  0.17484 -0.15014  0.04625
                  z   0.08148 -0.06267  0.13325 -0.02942  0.08157  0.09312
  9   c           x  -0.00881  0.06485 -0.10962  0.09989 -0.12567 -0.04552
                  y  -0.00497  0.04641 -0.07983  0.07017 -0.08922 -0.03428
                  z   0.07745  0.05566 -0.19324 -0.02611 -0.06444 -0.16328
 10   h           x  -0.14352 -0.16940  0.17977  0.03172  0.05396  0.15484
                  y  -0.10213 -0.12310  0.12926  0.01919  0.04176  0.10918
                  z  -0.08910 -0.27567  0.20261 -0.13800  0.19587  0.10246
 11   c           x  -0.02893 -0.05152  0.01546 -0.10698  0.08957 -0.03240
                  y  -0.02122 -0.03525  0.01358 -0.07327  0.06252 -0.01980
                  z  -0.07265  0.06108  0.18604  0.14258 -0.02890  0.20592
 12   h           x  -0.10836  0.03687  0.12336 -0.00856  0.06108  0.09385
                  y  -0.07396  0.02163  0.08369 -0.00850  0.04266  0.06172
                  z   0.17677 -0.28541 -0.17887 -0.24021  0.10777 -0.23996
 13   h           x   0.28571  0.06625  0.03293  0.22153  0.20363 -0.15455
                  y   0.20133  0.04498  0.02552  0.15630  0.14147 -0.11052
                  z   0.06486 -0.07151  0.11322  0.00679 -0.05220 -0.11470
 14   h           x   0.12760 -0.05406  0.12045  0.00159 -0.06111 -0.11903
                  y   0.09332 -0.04210  0.08673 -0.00289 -0.04764 -0.08216
                  z   0.23238 -0.29228  0.16063 -0.20379 -0.28526 -0.04431
 15   c           x  -0.08065 -0.00911 -0.04606 -0.17011 -0.14536  0.13849
                  y  -0.05659 -0.00759 -0.03115 -0.12017 -0.10357  0.09622
                  z   0.00880 -0.06753  0.09197 -0.04623 -0.09368 -0.06469
 16   c           x   0.00855  0.05856 -0.00187  0.10174  0.10207 -0.05395
                  y   0.00453  0.04178 -0.00393  0.07307  0.07447 -0.03609
                  z  -0.08731  0.05665 -0.17499  0.10581  0.19621  0.11296
 17   c           x   0.03016 -0.06436  0.08300  0.09350  0.04969 -0.13269
                  y   0.02241 -0.04454  0.05568  0.06607  0.03726 -0.09093
                  z   0.05369  0.06753 -0.18833  0.00448  0.10238  0.18191
 18   c           x   0.02911 -0.06445 -0.08308 -0.09388 -0.04943  0.13343
                  y   0.02119 -0.04412 -0.05533 -0.06611 -0.03625  0.09066
                  z   0.05633  0.06770  0.18474 -0.00316 -0.09957 -0.17902
 19   h           x   0.08785  0.16537 -0.15533  0.02792  0.10897  0.13775
                  y   0.06252  0.11154 -0.10740  0.02142  0.07675  0.09321
                  z  -0.01803 -0.31435  0.19506  0.12842  0.02651 -0.26215
 20   h           x   0.09102  0.16409  0.15249 -0.02644 -0.10592 -0.13410
                  y   0.06340  0.11029  0.10371 -0.01965 -0.07284 -0.09021
                  z  -0.02147 -0.31150 -0.19250 -0.12931 -0.02798  0.25934
 21   c           x   0.00877  0.05871  0.00135 -0.10149 -0.10113  0.05490
                  y   0.00506  0.04256  0.00375 -0.07339 -0.07467  0.03763
                  z  -0.08478  0.05758  0.17895 -0.10601 -0.19837 -0.11626
 22   c           x  -0.08036 -0.00894  0.04764  0.17007  0.14331 -0.14129
                  y  -0.05661 -0.00710  0.03186  0.12030  0.10207 -0.09843
                  z   0.00689 -0.06792 -0.09214  0.04527  0.09297  0.06480
 23   h           x   0.12621 -0.05567 -0.12397 -0.00170  0.06341  0.12279
                  y   0.09343 -0.04296 -0.09001  0.00246  0.04974  0.08619
                  z   0.23133 -0.29692 -0.16514  0.20421  0.28891  0.04778
 24   h           x   0.28573  0.06573 -0.03861 -0.22020 -0.19858  0.16105
                  y   0.20160  0.04515 -0.02865 -0.15590 -0.13917  0.11461
                  z   0.06331 -0.07189 -0.11462 -0.00844  0.05145  0.11695

reduced mass(g/mol)     2.004    2.002    5.311    5.321    5.314    5.315


       mode              61       62       63       64       65       66

     frequency        3153.77  3153.86  3163.15  3163.43  3166.66  3166.91

     symmetry            a        a        a        a        a        a   

        IR               YES      YES      YES      YES      YES      YES
|dDIP/dQ|   (a.u.)     0.0002   0.0002   0.0011   0.0007   0.0016   0.0007
intensity (km/mol)       0.05     0.10     2.12     0.84     4.56     0.84
intensity (  %   )       0.02     0.04     0.89     0.35     1.91     0.35
 
       RAMAN             YES      YES      YES      YES      YES      YES
 
  1   h           x   0.02354 -0.06857 -0.05002  0.08257  0.00616  0.01251
                  y   0.01807 -0.05257 -0.03834  0.06328  0.00479  0.00991
                  z   0.14228 -0.41412 -0.30306  0.50148  0.04677  0.08469
  2   c           x  -0.00207  0.00599  0.00435 -0.00700  0.00050 -0.00021
                  y  -0.00159  0.00456  0.00334 -0.00536  0.00033 -0.00026
                  z  -0.01182  0.03446  0.02582 -0.04284 -0.00437 -0.00751
  3   c           x  -0.00405  0.01246  0.00596 -0.01327 -0.01963 -0.01746
                  y  -0.00288  0.00888  0.00422 -0.00944 -0.01397 -0.01243
                  z   0.00461 -0.01418 -0.00738  0.01597  0.02093  0.01876
  4   h           x   0.05042 -0.15431 -0.07509  0.16421  0.22939  0.20446
                  y   0.03591 -0.11025 -0.05342  0.11743  0.16387  0.14592
                  z  -0.05529  0.16972  0.08300 -0.18170 -0.25059 -0.22356
  5   c           x   0.00457 -0.01303  0.00534 -0.00552  0.02621  0.02125
                  y   0.00337 -0.00957  0.00393 -0.00408  0.01925  0.01559
                  z   0.00198 -0.00552  0.00288 -0.00346  0.01069  0.00852
  6   h           x  -0.05673  0.16085 -0.06631  0.06952 -0.31216 -0.25250
                  y  -0.04186  0.11854 -0.04896  0.05123 -0.23012 -0.18600
                  z  -0.02338  0.06602 -0.02786  0.02984 -0.12780 -0.10300
  7   c           x  -0.00159  0.00414 -0.00372  0.00549 -0.00455 -0.00332
                  y  -0.00138  0.00358 -0.00320  0.00474 -0.00375 -0.00270
                  z  -0.01088  0.02830 -0.02492  0.03795 -0.02303 -0.01594
  8   h           x   0.02059 -0.05377  0.04619 -0.07034  0.04416  0.03093
                  y   0.01770 -0.04584  0.03966 -0.05994  0.03742  0.02617
                  z   0.13050 -0.34008  0.29242 -0.44546  0.27049  0.18762
  9   c           x  -0.00893  0.02445 -0.01019  0.01998  0.01279  0.01234
                  y  -0.00611  0.01678 -0.00696  0.01368  0.00878  0.00852
                  z   0.00960 -0.02622  0.01209 -0.02302 -0.01194 -0.01194
 10   h           x   0.10677 -0.29217  0.12376 -0.23970 -0.14049 -0.13769
                  y   0.07325 -0.20054  0.08488 -0.16448 -0.09628 -0.09456
                  z  -0.11551  0.31607 -0.13530  0.26135  0.14948  0.14716
 11   c           x   0.01135 -0.03206 -0.00876  0.00944 -0.02567 -0.02023
                  y   0.00804 -0.02273 -0.00621  0.00673 -0.01819 -0.01435
                  z   0.00455 -0.01292 -0.00457  0.00564 -0.00968 -0.00751
 12   h           x  -0.13616  0.38474  0.10503 -0.11542  0.29636  0.23336
                  y  -0.09656  0.27291  0.07446 -0.08192  0.21009  0.16547
                  z  -0.05504  0.15555  0.04380 -0.04908  0.11894  0.09339
 13   h           x   0.04148  0.01557 -0.05281 -0.03266 -0.00823  0.01614
                  y   0.02106  0.00787 -0.02673 -0.01645 -0.00382  0.00809
                  z  -0.39419 -0.14763  0.50351  0.31175  0.08970 -0.16941
 14   h           x  -0.36950 -0.13368  0.19828  0.09068 -0.22721  0.24621
                  y  -0.25604 -0.09265  0.13732  0.06287 -0.15738  0.17056
                  z   0.19418  0.07027 -0.10636 -0.04913  0.11837 -0.12784
 15   c           x  -0.00376 -0.00141  0.00471  0.00283 -0.00011 -0.00042
                  y  -0.00197 -0.00072  0.00245  0.00142 -0.00026 -0.00002
                  z   0.03279  0.01230 -0.04288 -0.02662 -0.00791  0.01472
 16   c           x   0.03082  0.01114 -0.01651 -0.00744  0.01978 -0.02150
                  y   0.02134  0.00772 -0.01140 -0.00515  0.01371 -0.01491
                  z  -0.01609 -0.00585  0.01031  0.00500 -0.00955  0.01016
 17   c           x  -0.01190 -0.00457  0.00943  0.00744  0.01721 -0.02214
                  y  -0.00882 -0.00339  0.00700  0.00554  0.01272 -0.01638
                  z  -0.01142 -0.00440  0.01008  0.00776  0.01557 -0.02021
 18   c           x  -0.02659 -0.00931 -0.01576 -0.01159 -0.01352  0.01839
                  y  -0.01897 -0.00665 -0.01127 -0.00829 -0.00960  0.01314
                  z  -0.02413 -0.00842 -0.01618 -0.01147 -0.01098  0.01538
 19   h           x   0.14771  0.05661 -0.11889 -0.09259 -0.20273  0.26116
                  y   0.10972  0.04215 -0.08826 -0.06901 -0.15062  0.19393
                  z   0.13702  0.05268 -0.11134 -0.08682 -0.18696  0.24119
 20   h           x   0.31827  0.11133  0.19185  0.13921  0.15128 -0.20799
                  y   0.22729  0.07953  0.13702  0.09943  0.10784 -0.14850
                  z   0.29065  0.10165  0.17757  0.12839  0.13630 -0.18811
 21   c           x   0.01322  0.00471  0.00985  0.00436 -0.02156  0.02465
                  y   0.00947  0.00337  0.00704  0.00312 -0.01545  0.01765
                  z  -0.00735 -0.00258 -0.00644 -0.00306  0.01142 -0.01287
 22   c           x  -0.00277 -0.00092 -0.00389 -0.00212  0.00251 -0.00258
                  y  -0.00168 -0.00055 -0.00236 -0.00126  0.00162 -0.00167
                  z   0.03155  0.01043  0.04239  0.02407 -0.01680  0.01545
 23   h           x  -0.16344 -0.05802 -0.12219 -0.05444  0.25602 -0.29211
                  y  -0.11752 -0.04166 -0.08788 -0.03908  0.18415 -0.20991
                  z   0.08733  0.03093  0.06633  0.02985 -0.13629  0.15500
 24   h           x   0.03724  0.01238  0.04899  0.02787 -0.02059  0.01935
                  y   0.02292  0.00749  0.03028  0.01694 -0.01264  0.01200
                  z  -0.37865 -0.12542 -0.49718 -0.28278  0.19643 -0.18076

reduced mass(g/mol)     1.083    1.083    1.087    1.087    1.087    1.087


       mode              67       68       69       70       71       72

     frequency        3180.31  3181.27  3181.69  3181.96  3193.13  3193.43

     symmetry            a        a        a        a        a        a   

        IR               YES      YES      YES      YES      YES      YES
|dDIP/dQ|   (a.u.)     0.0004   0.0061   0.0015   0.0060   0.0001   0.0017
intensity (km/mol)       0.35    66.79     3.84    64.74     0.01     5.35
intensity (  %   )       0.15    27.99     1.61    27.14     0.00     2.24
 
       RAMAN             YES      YES      YES      YES      YES      YES
 
  1   h           x   0.05717 -0.04906  0.03110  0.04277  0.03790 -0.03353
                  y   0.04342 -0.03760  0.02383  0.03301  0.02900 -0.02547
                  z   0.33973 -0.29041  0.19938  0.27698  0.22511 -0.19841
  2   c           x  -0.00580  0.00511 -0.00176 -0.00220 -0.00396  0.00358
                  y  -0.00436  0.00389 -0.00142 -0.00184 -0.00301  0.00267
                  z  -0.03027  0.02578 -0.01816 -0.02525 -0.02064  0.01824
  3   c           x   0.02179 -0.02047 -0.00334 -0.00692  0.02030 -0.01892
                  y   0.01553 -0.01455 -0.00237 -0.00491  0.01442 -0.01344
                  z  -0.02162  0.02058  0.00572  0.01041 -0.02308  0.02151
  4   h           x  -0.23834  0.22515  0.04581  0.08959 -0.22635  0.21106
                  y  -0.17042  0.16063  0.03285  0.06400 -0.16173  0.15075
                  z   0.25788 -0.24373 -0.05306 -0.10215  0.24892 -0.23228
  5   c           x  -0.01136  0.00830 -0.01923 -0.02667  0.03039 -0.02903
                  y  -0.00829  0.00604 -0.01412 -0.01958  0.02230 -0.02129
                  z  -0.00199  0.00093 -0.00808 -0.01149  0.01272 -0.01213
  6   h           x   0.12345 -0.08887  0.21980  0.30548 -0.33673  0.32226
                  y   0.09094 -0.06532  0.16207  0.22515 -0.24828  0.23730
                  z   0.04677 -0.03271  0.09016  0.12576 -0.13807  0.13216
  7   c           x  -0.00603  0.00579  0.00117  0.00256  0.00336 -0.00297
                  y  -0.00507  0.00480  0.00080  0.00184  0.00293 -0.00263
                  z  -0.03494  0.03262 -0.00153  0.00239  0.02521 -0.02272
  8   h           x   0.06323 -0.05952  0.00021 -0.00827 -0.04257  0.03813
                  y   0.05411 -0.05045  0.00047 -0.00649 -0.03644  0.03280
                  z   0.39274 -0.36774  0.01371 -0.03210 -0.27276  0.24531
  9   c           x   0.01596 -0.01585 -0.01283 -0.02146 -0.01119  0.00993
                  y   0.01095 -0.01091 -0.00875 -0.01471 -0.00770  0.00679
                  z  -0.01516  0.01541  0.01557  0.02555  0.01157 -0.01020
 10   h           x  -0.16963  0.17008  0.14932  0.24831  0.11930 -0.10513
                  y  -0.11631  0.11677  0.10227  0.17038  0.08188 -0.07203
                  z   0.18057 -0.18160 -0.16409 -0.27225 -0.12835  0.11303
 11   c           x  -0.00441  0.00143 -0.02340 -0.03540 -0.01304  0.01150
                  y  -0.00308  0.00099 -0.01657 -0.02511 -0.00925  0.00813
                  z   0.00057 -0.00155 -0.00962 -0.01478 -0.00509  0.00448
 12   h           x   0.04328 -0.01082  0.26079  0.39552  0.14110 -0.12393
                  y   0.03061 -0.00766  0.18486  0.28057  0.10007 -0.08781
                  z   0.01406 -0.00126  0.10571  0.16067  0.05680 -0.04988
 13   h           x   0.03601  0.03791 -0.02037  0.01146 -0.02426 -0.02518
                  y   0.01794  0.01936 -0.00967  0.00546 -0.01241 -0.01273
                  z  -0.33968 -0.35620  0.22390 -0.12972  0.22489  0.23210
 14   h           x   0.09276  0.06970 -0.37695  0.24650 -0.12876 -0.13191
                  y   0.06425  0.04837 -0.26107  0.17085 -0.08923 -0.09132
                  z  -0.04577 -0.03333  0.19947 -0.13067  0.06731  0.06895
 15   c           x  -0.00355 -0.00386  0.00003  0.00018  0.00272  0.00289
                  y  -0.00184 -0.00209 -0.00038  0.00034  0.00150  0.00156
                  z   0.03039  0.03177 -0.02032  0.01179 -0.02065 -0.02138
 16   c           x  -0.00886 -0.00683  0.03363 -0.02193  0.01193  0.01228
                  y  -0.00615 -0.00476  0.02327 -0.01520  0.00828  0.00849
                  z   0.00260  0.00132 -0.01853  0.01223 -0.00601 -0.00616
 17   c           x   0.01865  0.02118  0.01240 -0.00921 -0.02150 -0.02367
                  y   0.01375  0.01559  0.00924 -0.00684 -0.01591 -0.01751
                  z   0.01483  0.01716  0.01378 -0.00984 -0.02048 -0.02255
 18   c           x   0.01169  0.01450  0.02500 -0.01769  0.01054  0.01094
                  y   0.00829  0.01032  0.01785 -0.01268  0.00754  0.00777
                  z   0.00853  0.01108  0.02472 -0.01725  0.00925  0.00954
 19   h           x  -0.20304 -0.23176 -0.14973  0.10983  0.23925  0.26370
                  y  -0.15088 -0.17193 -0.11145  0.08159  0.17784  0.19585
                  z  -0.18433 -0.21055 -0.14164  0.10338  0.22183  0.24463
 20   h           x  -0.12201 -0.15340 -0.28551  0.20148 -0.11297 -0.11648
                  y  -0.08700 -0.10950 -0.20380  0.14400 -0.08068 -0.08306
                  z  -0.10835 -0.13701 -0.26362  0.18571 -0.10266 -0.10579
 21   c           x  -0.01683 -0.01628  0.02362 -0.01372 -0.02619 -0.02909
                  y  -0.01209 -0.01167  0.01690 -0.00981 -0.01873 -0.02080
                  z   0.00662  0.00604 -0.01363  0.00816  0.01435  0.01593
 22   c           x  -0.00317 -0.00372 -0.00291  0.00223 -0.00159 -0.00160
                  y  -0.00196 -0.00228 -0.00198  0.00147 -0.00091 -0.00094
                  z   0.03193  0.03573  0.00722 -0.00795  0.02196  0.02295
 23   h           x   0.18545  0.17819 -0.27196  0.15860  0.29022  0.32288
                  y   0.13345  0.12798 -0.19559  0.11397  0.20875  0.23200
                  z  -0.09537 -0.09089  0.14607 -0.08557 -0.15482 -0.17232
 24   h           x   0.03547  0.04012  0.01144 -0.01117  0.02283  0.02364
                  y   0.02216  0.02467  0.00732 -0.00697  0.01400  0.01463
                  z  -0.35689 -0.40037 -0.08366  0.09095 -0.23771 -0.24779

reduced mass(g/mol)     1.095    1.094    1.095    1.095    1.099    1.099
 

         **************************************************************
         *                                                            *
         *  zero point VIBRATIONAL energy  :      0.2005886  Hartree  *
         *    SCF-energy                   :   -464.7299411           *
         *    SCF + E(vib0)                :   -464.5293526           *
         *                                                            *
         **************************************************************




 time elapsed for vibrational analysis     5.04 sec


    ------------------------------------------------------------------------
         total  cpu-time : 21 hours 45 minutes and 50 seconds
         total wall-time : 48 minutes and 33 seconds
    ------------------------------------------------------------------------

   ****  force : all done  ****


    2020-06-22 21:24:33.822 

