           Doing BLAS/Lapack in the master proc. with 16 CPUs.
           SMPCPUS    set: Shared-memory Parallelization with  28 CPUs.

           SMP Parallelization Reference:
           C. van Wullen, J. Comput. Chem. 32 (2011) 1195--1201

 force (c-19-411) : TURBOMOLE V7.2 ( 21454 ) 4 Oct 2017 at 12:48:15
 Copyright (C) 2017 TURBOMOLE GmbH, Karlsruhe


    2020-06-23 22:37:50.819 



                             T U R B O M O L E   

                          a o f o r c e - program

                        using direct algorithms for

                       SCF level calculations of
                         * harmonic force constants
                         * hyperpolarizabilities
                         * IR and RAMAN intensities
                         * VCD intensities

                       DFT level calculations of
                         * harmonic force constants
                         * IR intensities
                                                   
       Stephan Boecker, Peter Deglmann, Filipp Furche and Marco Haeser
                          Quantum Chemistry Group
                          Universitaet  Karlsruhe
                                   Germany

 
 
 
 
     References :
 
       RI-J implementation:
         Peter Deglmann, Klaus May, Filipp Furche, Reinhart Ahlrichs
                 Chem. Phys. Lett. 384:103 (2004)
 
       Efficiency, technical details:
         Peter Deglmann, Filipp Furche, Reinhart Ahlrichs
                 Chem. Phys. Lett. 362:511 (2002)
 
       Search of lowest eigenvalues by iterative diagonalization:
         Peter Deglmann, Filipp Furche
                 J. Chem. Phys. 117:9535 (2002)
 
       Vibrational circular dichroism implementation:
        Kevin Reiter, Michael Kuehn, Florian Weigend
                 J. Chem. Phys. 146:054102 (2017)  
 
 


              +--------------------------------------------------+
              | Atomic coordinate, charge and isotop information |
              +--------------------------------------------------+

                    atomic coordinates            atom    charge  isotop
         -1.34047752   -3.30908477    4.58149305    h      1.000     0
         -0.84882110   -3.86469601    2.67275347    c      6.000     0
         -2.71296317   -4.00448783    0.82257213    c      6.000     0
         -4.65732955   -3.56543302    1.29435621    h      1.000     0
         -2.07873030   -4.69368209   -1.63569795    c      6.000     0
         -3.52897492   -4.79480652   -3.07888073    h      1.000     0
          0.42126864   -5.24700511   -2.24307353    c      6.000     0
          0.91658414   -5.77807746   -4.15839391    h      1.000     0
          2.28511487   -5.11213053   -0.39050656    c      6.000     0
          4.23178993   -5.53942058   -0.86398914    h      1.000     0
          1.64955112   -4.41972815    2.06690128    c      6.000     0
          3.10205737   -4.30186598    3.50614881    h      1.000     0
          3.95211803    7.21291405    0.71618579    h      1.000     0
          2.31537868    6.05004170    0.30756774    c      6.000     0
          2.62126927    3.50189215   -0.27271404    c      6.000     0
          4.49672876    2.67772636   -0.31383099    h      1.000     0
          0.52187208    2.00670342   -0.79629329    c      6.000     0
          0.75579228    0.02219254   -1.23575171    h      1.000     0
         -1.88582324    3.06379623   -0.73814149    c      6.000     0
         -3.51838335    1.89365169   -1.13979132    h      1.000     0
         -2.19531169    5.61123907   -0.15966948    c      6.000     0
         -4.07182166    6.43291077   -0.11460318    h      1.000     0
         -0.09372532    7.10544746    0.36402457    c      6.000     0
         -0.33328271    9.08938442    0.81593466    h      1.000     0
 
       center of nuclear mass  :   -0.00003977    0.00005803   -0.00011779
       center of nuclear charge:   -0.00000857    0.00029087   -0.00005697

              +--------------------------------------------------+
              |               basis set information              |
              +--------------------------------------------------+

              we will work with the 1s 3p 5d 7f 9g ... basis set
              ...i.e. with spherical basis functions...

   type   atoms  prim   cont   basis
   ---------------------------------------------------------------------------
    h       12      8      6   def2-TZVP   [3s1p|5s1p]
    c       12     46     31   def2-TZVP   [5s3p2d1f|11s6p2d1f]
   ---------------------------------------------------------------------------
   total:   24    648    444
   ---------------------------------------------------------------------------

   total number of primitive shells          :   26
   total number of contracted shells         :  180
   total number of cartesian basis functions :  504
   total number of SCF-basis functions       :  444

 
             FOUND RI-J FLAG !
 

 NOTE: THIS IS A PRELIMINARY IMPLEMENTATION. THE RI APPROXIMATION IS
       PRESENTLY USED FOR CPKS CONTRIBUTIONS TO THE HESSIAN ONLY! SEE
       MANUAL FOR FURTHER DETAILS.

  
 AUXILIARY BASIS SET information:

              we will work with the 1s 3p 5d 7f 9g ... basis set
              ...i.e. with spherical basis functions...

   type   atoms  prim   cont   basis
   ---------------------------------------------------------------------------
    h       12     16     11   def2-TZVP   [3s1p1d|5s2p1d]
    c       12     70     49   def2-TZVP   [6s4p3d1f1g|12s5p4d2f1g]
   ---------------------------------------------------------------------------
   total:   24   1032    720
   ---------------------------------------------------------------------------

   total number of primitive shells          :   32
   total number of contracted shells         :  240
   total number of cartesian basis functions :  876
   total number of SCF-basis functions       :  720


 symmetry group of the molecule :   c1 

 the group has the following generators :
   c1(z)

    1 symmetry operations found

 there are 1 real representations :   a   

 maximum number of shells which are related by symmetry :  1


 determining totally symmetric integral contributions 
    - equivalent to irreducible tensor elements - 
 which can be formed within each triple of representations :

             representation triple      contributions

              a     a     a               1

    mo occupation :
   irrep   mo's   occupied
    a      444       42
 
 number of basis functions   :                    444
 number of occupied orbitals :                     42
 
  MOs are in ASCII format !


 reading orbital data $scfmo  from file mos
 orbital characterization : scfconv=9
 time elapsed for calculating density matrices :   0.253 sec

 number of non-frozen orbitals          :   444
 number of non-frozen occupied orbitals :    42
 Blocking parameters 
 shells:
    index      start shell   last shell  start bf    last bf    #bf 
       1             1         180             1        504    504
  
           ----------------------
               RI - INFORMATION
           ----------------------

 biggest AO integral is expected to be     5.725698708

 Threshold for integral neglect (rithr2):   0.50E-13
 Threshold for integral neglect (rithr1):   0.50E-13

 Contributions to RI integral batches: 
  neglected integral batches:                  2466
  direct contribution:                            0
  memory contribution:                 13824
 Core memory available (ricore):             55000 MiB
 Core memory needed for (P|Q) and Cholesky:      4 MiB
 Core memory used for integrals:               733 MiB
 
 ****************************************
 Memory allocated for RIDFT: 737 MiB
 ****************************************
 
  
           ------------------
           density functional
           ------------------
 TPSS global hybrid functional
 exchange:    9/10 (LDA+TPSS) + 1/10 HF
 correlation: LDA (PW) + TPSS

 spherical integration : Lebedev's spherical grid
 spherical gridsize    :                     5
    i.e. gridpoints    :                   590
 value for diffuse not defined
 radial integration    : Chebyshev 2nd kind (scaling 3)
 radial gridsize       :                     8
 integration cells     :                    24
 partition function    : becke
 partition sharpness   :                     3
  
 
 Derivatives of quadrature weights will be included
 
          Overall gridpoints after grid construction =        375368
 Ordering of quadrature gridpoints disabled.
 
 
 
 
 OCCUPIED-OCCUPIED TENSOR SPACES :

          IRREP   tensor space dimension   number of roots

           a              1764                  66
 
 OCCUPIED-VIRTUAL TENSOR SPACES :

          IRREP   tensor space dimension   number of roots

           a             16884                  66
 
 
 
 
 CONSTRUCTING integral bounds

 setting up bound for integral derivative estimation

 increment for numerical differentiation : 0.00050000
 
 machine precision:   2.220446049250313E-016

 integral neglect threshold       :  0.10E-09
 integral storage threshold THIZE :  0.10E-04
 integral storage threshold THIME :         5

 
 
 
 PREPARING NUMERICAL INTEGRATION
 
 Remaining core memory for DFT =                 97580 MB
 
 Memory needed per atom    =                  2982 KiB
 
     i. e.                    24 atoms per loop

 Calculating ground state density on molecular grid

 Integral of ground state density: N =   84.00000169588623    


 
 
 CONSTRUCTING first deriv. of <mu|x,y,z|nu> -> Dip. deriv.
  dipole integral derivatives will be neglected if
  expon. factor <0.992063E-14
      ...terminated. cpu:       1.09       wall:       0.04
 
 
 
 
 CONSTRUCTING first deriv. of  <mu|nu>
                               <mu|h|nu>    -> RHS
              second deriv. of <mu|nu>      -> Hessian
                               <mu|h|nu>    -> Hessian
                               nucl. rep.   -> Hessian
     integrals are neglected if expon. factor <  9.920634920634921E-016
  _________________________________
 |                                 |
 |         DFTD3 V3.1 Rev 0        |
 | S.Grimme, University Bonn       |
 |         June 2014               |
 |   see standalone version        |
 |       dftd3 -h for options      |
 |_________________________________|
 
 Please cite DFT-D3 work done with this code as:
 S. Grimme, J. Antony, S. Ehrlich and H. Krieg,
 J. Chem. Phys, 132 (2010), 154104.
 If used with BJ-damping cite also
 S. Grimme, S. Ehrlich and L. Goerigk,
 J. Comput. Chem. 32 (2011), 1456-1465
 For DFT-D2 the reference is
 S. Grimme, J. Comput. Chem., 27 (2006), 1787-1799
 
      ...terminated. cpu:      18.32       wall:       2.04
 
 
 
 
 CONSTRUCTING second deriv. of 2e energy    -> Hessian
   treating Coulomb (and exchange) contribution
     integrals will be neglected if total contribution <  9.920634920634921E-012
      ...terminated. cpu:    1446.58       wall:      52.53
   treating exchange-correlation contribution
      ...terminated. cpu:    1162.63       wall:      42.03
 
 
 
 
 CONSTRUCTING S(i,j)xi
      ...terminated. cpu:       0.02       wall:       0.02
 
 
 
 
 CONSTRUCTING <i|x,y,z|j>*S(i,j)xi          -> Dip. deriv.
      ...terminated. cpu:       0.49       wall:       0.03
 
 
 
 
 CONSTRUCTING epsilon(i)*S(i,j)xi*S(i,j)chi -> Hessian
      ...terminated. cpu:       0.08       wall:       0.00
 
 
 
 
 CONSTRUCTING G(a,i)[S(k,l)xi]              -> RHS
              G(i,j)[S(k,l)xi]*S(i,j)chi    -> Hessian
 
         Maximum core memory set to                  98000 MB
         This corresponds to                 50057 vectors in CAO basis
      ...terminated. cpu:    5647.25       wall:     201.88
 
 
 
 
 CONSTRUCTING G(mu,nu)[D(kap,lam)]xi
 
          Maximum core memory set to                  98000 MB
          Atoms treated simultaneously :                    24
      ...terminated. cpu:    3004.29       wall:     107.57
 
 
 
 
 CONSTRUCTING F(a,i)xi                      -> RHS
              F(i,j)xi*S(i,j)chi            -> Hessian
 
        Maximum core memory set to                 98000 MB
        This corresponds to                 89112 vectors in CAO basis
      ...terminated. cpu:      16.51       wall:       1.22
 
 
 
 
 CONSTRUCTING epsilon(i)*S(a,i)xi           -> RHS
      ...terminated. cpu:       5.35       wall:       0.19
 
 
 
 
 SOLVING CPHF equations
 
 Residuum convergence criterium   :  1.000000000000000E-005
 
 Maximum number of Davidson iterations set to                    25


                       Nonorthonormal Krylov Space Iteration


 total number of roots to be determined:  66


 maximum core memory set to 98000 MB,
 corresponding to    49886 vectors in CAO basis


 maximum number of simultaneously treated vectors (including degeneracy):       66


 Iteration IRREP Converged      Max. Euclidean
                 roots          residual norm

    1       a        0        6.668836889690247D-02
 
    2       a        0        8.149974550428639D-03
 
    3       a        0        6.124464721800824D-04
 
    4       a       21        3.711253051586538D-05
 
    5       a       66        9.939609994284074D-06
 

 converged!

      ...terminated. cpu:   24214.13       wall:     865.65
 
 
 
 
 CONSTRUCTING <a|x,y,z|i>*U(a,i)xi          -> Dip. deriv.
      ...terminated. cpu:       0.97       wall:       0.03
 
 
 
 
 CONSTRUCTING RHS(a,i)xi*U(a,i)chi          -> Hessian
      ...terminated. cpu:       0.46       wall:       0.02
 
 
 
 

            -----------------------
            permanent dipole moment
            -----------------------

                                   x                y                z
    electronic part       :   -0.0045395928    -0.1852840259     0.0488214539
     nuclear   part       :   -0.0007201952     0.0244333111    -0.0047853680
     total                :   -0.0052597880    -0.1608507148     0.0440360859

 with reference to the point :   0.0000000        0.0000000        0.0000000
 (given in atomic units)
    | dipole |       :    0.4241002469  debye

   ***  dipole moment & cartesian dipole gradients written onto
        $dipole, $dipgrad,  file=<dipgrad>  ***

             -----------------------------------
             rotational and vibrational analysis
             -----------------------------------


            ==============================================================
            ATOMIC WEIGHTS (average over the natural occurance of isotops)
            ==============================================================
            ('*' denotes special isotop !)
              1     h                 1.00797
              2     c                12.01115
              3     c                12.01115
              4     h                 1.00797
              5     c                12.01115
              6     h                 1.00797
              7     c                12.01115
              8     h                 1.00797
              9     c                12.01115
             10     h                 1.00797
             11     c                12.01115
             12     h                 1.00797
             13     h                 1.00797
             14     c                12.01115
             15     c                12.01115
             16     h                 1.00797
             17     c                12.01115
             18     h                 1.00797
             19     c                12.01115
             20     h                 1.00797
             21     c                12.01115
             22     h                 1.00797
             23     c                12.01115
             24     h                 1.00797

          -------------------------------------------------
          CARTESIAN FORCE CONSTANT MATRIX (hartree/bohr**2)
         (translational & rotational space projected out)
          -------------------------------------------------

   ATOM              1 h                           2 c 
                  dx        dy        dz        dx        dy        dz
   1 h     dx  0.0748112
           dy -0.0244057 0.0499419
           dz -0.0653388 0.0827562 0.3151393
   2 c     dx -0.0746187 0.0214519 0.0608062 0.6520086
           dy  0.0213620-0.0587525-0.0747520-0.0847756 0.1812138
           dz  0.0607705-0.0751318-0.2974097 0.0026003 0.1372028 0.6971184
   3 c     dx  0.0097883 0.0009115 0.0081583-0.2294738-0.0053289-0.1359241
           dy -0.0066494 0.0024555-0.0061216 0.0093936-0.0671097-0.0172480
           dz -0.0223569-0.0008776-0.0164952-0.0749572-0.0277080-0.2262172
   4 h     dx  0.0008938-0.0008143-0.0000466-0.0170938 0.0052877 0.0080547
           dy -0.0006069-0.0035355 0.0011778-0.0020318 0.0032314 0.0002240
           dz  0.0008324 0.0009930 0.0007431-0.0225470 0.0053735 0.0095166
   5 c     dx -0.0029206 0.0006228-0.0046007 0.0526160-0.0091601-0.0079015
           dy  0.0008454 0.0069291-0.0012686-0.0189052 0.0077760-0.0119260
           dz -0.0035960-0.0013656-0.0008364-0.0499246-0.0053770-0.0482553
   6 h     dx  0.0003147 0.0001020 0.0004544 0.0010516 0.0014739 0.0018492
           dy -0.0002923 0.0001981-0.0003526 0.0017008 0.0063721-0.0030939
           dz -0.0012381-0.0000774-0.0009508 0.0028830-0.0032416-0.0042372
   7 c     dx -0.0011745-0.0000476-0.0004850-0.0602796 0.0043480-0.0170370
           dy -0.0000423-0.0006203 0.0003747 0.0043708-0.0082515 0.0038200
           dz -0.0004930 0.0003591 0.0005413-0.0169979 0.0038015-0.0045670
   8 h     dx  0.0001009-0.0002126 0.0001069-0.0011812-0.0000388-0.0004934
           dy -0.0002161-0.0012420 0.0002904-0.0000292-0.0006321 0.0003877
           dz  0.0001045 0.0002710-0.0001244-0.0004963 0.0003797 0.0005340
   9 c     dx -0.0055953 0.0023695 0.0011791 0.0040708 0.0094163 0.0369238
           dy  0.0021793 0.0067007-0.0015239 0.0189396 0.0026221-0.0066417
           dz  0.0001936-0.0012918 0.0021035 0.0788461-0.0136567 0.0052601
  10 h     dx -0.0003096 0.0000508-0.0001263 0.0019500 0.0012129 0.0012767
           dy  0.0004513 0.0001234-0.0001003 0.0009896 0.0065110-0.0032518
           dz  0.0015667-0.0003693-0.0002679 0.0002595-0.0030724-0.0052119
  11 c     dx -0.0023362 0.0006002-0.0005881-0.3123422 0.0590719 0.0734381
           dy  0.0082342 0.0011869-0.0013681 0.0441260-0.0756541-0.0296277
           dz  0.0299573-0.0063118-0.0030745 0.0123891-0.0199049-0.1349443
  12 h     dx  0.0010696-0.0006804 0.0005250-0.0164792-0.0026433-0.0236315
           dy -0.0009118-0.0035231 0.0010378 0.0047939 0.0033029 0.0052389
           dz -0.0003588 0.0011529 0.0005504 0.0069647 0.0003377 0.0088570
  13 h     dx -0.0000032 0.0000060-0.0000024 0.0000047-0.0000144-0.0000130
           dy -0.0000045 0.0000047 0.0000029 0.0000085-0.0000100-0.0000306
           dz  0.0000063 0.0000059-0.0000045-0.0000041-0.0000109-0.0000023
  14 c     dx -0.0000089-0.0000186 0.0000160-0.0000276 0.0000890-0.0000247
           dy -0.0000103-0.0000003 0.0000012-0.0000155-0.0000422-0.0000302
           dz -0.0000161-0.0000061 0.0000063-0.0000293-0.0000182-0.0000532
  15 c     dx -0.0000269-0.0000427 0.0000424 0.0000278 0.0001200 0.0000352
           dy -0.0000014-0.0000124 0.0000466 0.0000018 0.0001119-0.0000912
           dz -0.0000360-0.0000399 0.0000440 0.0000125 0.0001270 0.0000249
  16 h     dx -0.0000059 0.0000028-0.0000115-0.0000479 0.0000071 0.0000000
           dy  0.0000064-0.0000026-0.0000079-0.0000410 0.0000127 0.0000147
           dz  0.0000191 0.0000081-0.0000135 0.0000355-0.0000331-0.0000083
  17 c     dx  0.0000180-0.0000054 0.0000331-0.0001368-0.0001034-0.0001567
           dy  0.0000469 0.0000753-0.0001507-0.0000778-0.0004466 0.0002754
           dz -0.0000045-0.0000344 0.0000268-0.0001284 0.0004548 0.0001302
  18 h     dx -0.0000284 0.0000213-0.0000276 0.0000496-0.0000727 0.0002047
           dy  0.0000379 0.0000699-0.0000811-0.0000020-0.0002422 0.0000101
           dz -0.0000012-0.0000033-0.0000128 0.0002657 0.0000956-0.0004750
  19 c     dx  0.0000313 0.0000478-0.0000705 0.0002059-0.0000989 0.0002055
           dy -0.0000091 0.0000338-0.0000051 0.0000472-0.0001060-0.0000404
           dz  0.0000083-0.0000487 0.0000613 0.0000188 0.0001368 0.0000583
  20 h     dx -0.0000059 0.0000129 0.0000067-0.0001659-0.0000389-0.0001191
           dy -0.0000093-0.0000015-0.0000266 0.0000791 0.0000803 0.0000939
           dz -0.0000199 0.0000292-0.0000550-0.0000442-0.0001391-0.0000607
  21 c     dx  0.0000059 0.0000218-0.0000150-0.0001261-0.0000559-0.0000662
           dy -0.0000089-0.0000363 0.0000428-0.0000376 0.0001191-0.0000089
           dz  0.0000007-0.0000327 0.0000430 0.0000544 0.0000740-0.0000287
  22 h     dx -0.0000043-0.0000051-0.0000015-0.0000025 0.0000181 0.0000258
           dy  0.0000061 0.0000011 0.0000095 0.0000043-0.0000096-0.0000246
           dz -0.0000025 0.0000095-0.0000126 0.0000000-0.0000016 0.0000148
  23 c     dx  0.0000050 0.0000113-0.0000142 0.0000035-0.0000743-0.0000087
           dy -0.0000011-0.0000017 0.0000187 0.0000079-0.0000796-0.0000888
           dz  0.0000007-0.0000008 0.0000041 0.0000014-0.0000494-0.0000431
  24 h     dx -0.0000003-0.0000004 0.0000001-0.0000132-0.0000016-0.0000088
           dy -0.0000002 0.0000078-0.0000000 0.0000009-0.0000174-0.0000319
           dz  0.0000018 0.0000064-0.0000058-0.0000083-0.0000184-0.0000004

   ATOM              3 c                           4 h 
                  dx        dy        dz        dx        dy        dz
   3 c     dx  0.7136704
           dy -0.0949117 0.1783614
           dz  0.0031680 0.1201330 0.6365258
   4 h     dx -0.3060536 0.0593230 0.0591324 0.3249915
           dy  0.0594131-0.0508928-0.0186546-0.0654879 0.0416874
           dz  0.0592193-0.0185473-0.0726548-0.0636887 0.0218253 0.0724202
   5 c     dx -0.1376411 0.0159033 0.0138777-0.0035914 0.0081994 0.0299675
           dy  0.0301018-0.0809036-0.0599407 0.0009101 0.0012283-0.0061329
           dz  0.0745168-0.0702540-0.3040276-0.0006213-0.0009343-0.0019636
   6 h     dx  0.0091541 0.0006383 0.0071522 0.0007044-0.0008650-0.0003848
           dy -0.0065510 0.0025538-0.0056255-0.0006561-0.0035617 0.0012340
           dz -0.0234692-0.0005776-0.0159581 0.0005465 0.0010696 0.0009283
   7 c     dx  0.0040827 0.0194367 0.0787659 0.0019599 0.0009990 0.0002340
           dy  0.0094583 0.0030346-0.0132289 0.0011812 0.0064305-0.0030464
           dz  0.0367986-0.0067015 0.0047357 0.0012935-0.0031812-0.0052176
   8 h     dx -0.0056145 0.0021520 0.0001822-0.0003027 0.0004666 0.0015640
           dy  0.0024094 0.0066369-0.0013140 0.0000720 0.0001647-0.0003765
           dz  0.0012100-0.0014380 0.0021245-0.0001274-0.0001056-0.0002763
   9 c     dx -0.0042286-0.0046453-0.0167706 0.0005745-0.0003235-0.0004787
           dy -0.0047473-0.0098814-0.0091776-0.0003224-0.0006694-0.0000278
           dz -0.0163340-0.0091937-0.0588444-0.0005038-0.0000728-0.0011630
  10 h     dx  0.0005862-0.0003272-0.0004697-0.0000914-0.0001836 0.0001046
           dy -0.0003370-0.0006743-0.0000335-0.0001873-0.0012486 0.0003229
           dz -0.0004778-0.0000188-0.0011937 0.0001065 0.0003179 0.0000617
  11 c     dx -0.0493617-0.0023819-0.0506675-0.0010680 0.0004720-0.0035852
           dy  0.0070007 0.0105601 0.0181862 0.0002844 0.0069047-0.0018370
           dz -0.0086742 0.0114876 0.0509608-0.0046055-0.0016389-0.0026623
  12 h     dx -0.0046071 0.0026282 0.0028026-0.0009961-0.0000984-0.0012381
           dy  0.0024405 0.0065513-0.0018866 0.0003098 0.0002198 0.0002242
           dz  0.0017957-0.0017942 0.0012640 0.0004496-0.0000541 0.0003031
  13 h     dx -0.0000017-0.0000091 0.0000044 0.0000072 0.0000105-0.0000050
           dy  0.0000270-0.0000268-0.0000121 0.0000016 0.0000073-0.0000014
           dz  0.0000158-0.0000159-0.0000053-0.0000012 0.0000043 0.0000006
  14 c     dx -0.0000121-0.0000034-0.0000278 0.0000126 0.0000068-0.0000028
           dy  0.0000477-0.0000869-0.0000668 0.0000400 0.0000335-0.0000173
           dz  0.0000177-0.0000701 0.0000111 0.0000129 0.0000054-0.0000050
  15 c     dx -0.0002430 0.0001341 0.0000186 0.0000020-0.0000091-0.0000179
           dy  0.0000807-0.0000427-0.0001314-0.0000521-0.0000295 0.0000324
           dz -0.0000697 0.0000780-0.0000564 0.0000013-0.0000053 0.0000056
  16 h     dx  0.0000233-0.0000216 0.0000204 0.0000398 0.0000232-0.0000134
           dy  0.0000149-0.0000088 0.0000131 0.0000166 0.0000047-0.0000051
           dz  0.0000055 0.0000183-0.0000150-0.0000014 0.0000009-0.0000053
  17 c     dx  0.0000785-0.0004141-0.0002192-0.0000111 0.0000059-0.0000147
           dy -0.0002941-0.0001669 0.0001522 0.0001671 0.0001014-0.0000767
           dz -0.0001924 0.0001235-0.0001572 0.0000332 0.0000139-0.0000193
  18 h     dx -0.0004568 0.0000991 0.0004262-0.0000055-0.0000145-0.0000035
           dy -0.0000253-0.0001958 0.0001175 0.0000630 0.0000522-0.0000470
           dz  0.0002443 0.0000385 0.0000178-0.0000332-0.0000249-0.0000092
  19 c     dx  0.0001560 0.0000917-0.0001014-0.0002487-0.0001469 0.0001793
           dy  0.0002583-0.0001892-0.0000098-0.0000622-0.0000214 0.0000668
           dz  0.0001453 0.0002085-0.0001034-0.0001574-0.0001298 0.0000545
  20 h     dx  0.0001282-0.0002534-0.0000154 0.0001201 0.0000561-0.0000347
           dy -0.0000285 0.0000284 0.0000326-0.0000393-0.0001017 0.0000728
           dz -0.0001630-0.0001157 0.0000987 0.0001723 0.0001629-0.0000380
  21 c     dx -0.0000133-0.0001264 0.0000603 0.0001249 0.0000950-0.0000806
           dy -0.0000779 0.0000820 0.0000188-0.0000299-0.0000248-0.0000060
           dz -0.0000153 0.0000354-0.0000069-0.0000394-0.0000169-0.0000168
  22 h     dx -0.0000212 0.0000181 0.0000008 0.0000002-0.0000057 0.0000056
           dy  0.0000588-0.0000063-0.0000169-0.0000192-0.0000109 0.0000060
           dz -0.0000013 0.0000115-0.0000121 0.0000013 0.0000001 0.0000120
  23 c     dx  0.0000598-0.0000611-0.0000304 0.0000173 0.0000158-0.0000025
           dy  0.0000712-0.0000565 0.0000297 0.0000037 0.0000131-0.0000186
           dz  0.0000212-0.0000165 0.0000018 0.0000121 0.0000055-0.0000127
  24 h     dx  0.0000010-0.0000135 0.0000044 0.0000142 0.0000102-0.0000091
           dy  0.0000078-0.0000223 0.0000009 0.0000106 0.0000173-0.0000111
           dz  0.0000045-0.0000213 0.0000072 0.0000095 0.0000108-0.0000018

   ATOM              5 c                           6 h 
                  dx        dy        dz        dx        dy        dz
   5 c     dx  0.6832474
           dy -0.0768456 0.1746362
           dz  0.0558924 0.1180929 0.6692820
   6 h     dx -0.1963231-0.0061337-0.1377079 0.2063288
           dy -0.0061412-0.0388967-0.0145902 0.0053861 0.0287434
           dz -0.1377513-0.0145909-0.1943670 0.1492371 0.0175568 0.2039495
   7 c     dx -0.3110888 0.0437389 0.0126087-0.0164478 0.0048065 0.0069486
           dy  0.0582237-0.0759681-0.0196089-0.0024549 0.0033041 0.0003108
           dz  0.0729278-0.0294069-0.1343394-0.0236622 0.0053715 0.0088050
   8 h     dx -0.0023005 0.0079242 0.0300222 0.0010646-0.0009131-0.0003813
           dy  0.0006928 0.0012230-0.0062844-0.0006937-0.0035802 0.0011197
           dz -0.0005973-0.0013115-0.0031830 0.0005309 0.0009765 0.0005802
   9 c     dx -0.0496281 0.0073996-0.0085823-0.0046175 0.0023644 0.0018131
           dy -0.0027937 0.0110832 0.0117638 0.0026353 0.0064575-0.0017654
           dz -0.0503331 0.0186578 0.0500767 0.0028473-0.0019204 0.0012860
  10 h     dx -0.0010185 0.0002933-0.0046190-0.0009909 0.0003108 0.0004492
           dy  0.0005275 0.0068744-0.0016233-0.0000875 0.0002844-0.0000600
           dz -0.0035953-0.0018319-0.0026755-0.0012435 0.0002143 0.0003031
  11 c     dx -0.0307565 0.0110087 0.0307955-0.0002513 0.0001636 0.0010296
           dy  0.0109441-0.0127031-0.0099843 0.0001633-0.0007190-0.0000528
           dz  0.0312049-0.0100155-0.0295653 0.0010240-0.0000536-0.0002690
  12 h     dx -0.0002634 0.0001644 0.0010216 0.0000034-0.0002320-0.0000611
           dy  0.0001968-0.0007532-0.0000994-0.0002359-0.0012457 0.0003204
           dz  0.0010056-0.0000554-0.0002316-0.0000564 0.0003316-0.0000398
  13 h     dx  0.0000067-0.0000061 0.0000093 0.0000008 0.0000080 0.0000014
           dy  0.0000331-0.0000281 0.0000335 0.0000025 0.0000100-0.0000009
           dz -0.0000002-0.0000162 0.0000108-0.0000025-0.0000007-0.0000020
  14 c     dx  0.0000784-0.0000678 0.0000027 0.0000055 0.0000069 0.0000100
           dy -0.0000093-0.0000397 0.0001267 0.0000173 0.0000270 0.0000097
           dz -0.0000117 0.0000342 0.0000729 0.0000031 0.0000026 0.0000014
  15 c     dx -0.0001639 0.0001198-0.0001073-0.0000276-0.0000187 0.0000180
           dy  0.0001490-0.0001740 0.0000859-0.0000112-0.0000046-0.0000139
           dz  0.0000654-0.0000250 0.0000010 0.0000116 0.0000194 0.0000108
  16 h     dx  0.0000453-0.0000220 0.0000231 0.0000164 0.0000191 0.0000135
           dy  0.0000011-0.0000111 0.0000028 0.0000132 0.0000039 0.0000058
           dz -0.0000214-0.0000036-0.0000319-0.0000043-0.0000019-0.0000020
  17 c     dx -0.0000605-0.0003307 0.0003565 0.0000241 0.0000453 0.0000133
           dy -0.0001466-0.0001476-0.0001544 0.0000078 0.0000162 0.0000453
           dz  0.0001379-0.0003316-0.0001830 0.0000493 0.0000446 0.0000339
  18 h     dx -0.0002423-0.0000297-0.0003594-0.0000475-0.0000299-0.0000109
           dy -0.0005667-0.0002277 0.0001579 0.0001051 0.0001133 0.0000151
           dz -0.0003461 0.0001064 0.0001718-0.0000737-0.0000867-0.0000441
  19 c     dx  0.0000687 0.0000124-0.0000670-0.0000685-0.0001618-0.0001134
           dy  0.0001030 0.0001190 0.0001184-0.0000386-0.0000591-0.0000572
           dz  0.0000057-0.0000981-0.0001061 0.0000308 0.0000423-0.0000059
  20 h     dx -0.0000034-0.0001048 0.0001910 0.0000518 0.0000890 0.0000194
           dy -0.0000332 0.0000216-0.0001089-0.0000131-0.0000413-0.0000194
           dz  0.0000504 0.0000702 0.0001665-0.0000566-0.0000820-0.0000293
  21 c     dx -0.0000102-0.0000757 0.0000638 0.0000383 0.0000846 0.0000373
           dy  0.0000386 0.0000118-0.0000902-0.0000190-0.0000102 0.0000095
           dz  0.0000050 0.0000087-0.0000708 0.0000075 0.0000124 0.0000132
  22 h     dx -0.0000125 0.0000111-0.0000179 0.0000003-0.0000072 0.0000017
           dy  0.0000239-0.0000097 0.0000200-0.0000007-0.0000031-0.0000099
           dz  0.0000145 0.0000044 0.0000083-0.0000049-0.0000043-0.0000051
  23 c     dx -0.0000399-0.0000005 0.0000888 0.0000105 0.0000089-0.0000014
           dy  0.0000264-0.0000211 0.0000500 0.0000059 0.0000224 0.0000023
           dz  0.0000038-0.0000232 0.0000360 0.0000018 0.0000053-0.0000004
  24 h     dx  0.0000021-0.0000078 0.0000102 0.0000051 0.0000092 0.0000051
           dy  0.0000109-0.0000190 0.0000228 0.0000027 0.0000157 0.0000021
           dz  0.0000000 0.0000033 0.0000106-0.0000022 0.0000006-0.0000007

   ATOM              7 c                           8 h 
                  dx        dy        dz        dx        dy        dz
   7 c     dx  0.6502202
           dy -0.0840118 0.1793839
           dz  0.0019795 0.1332222 0.6971587
   8 h     dx -0.0748083 0.0206893 0.0613037 0.0749231
           dy  0.0206757-0.0567876-0.0715219-0.0235736 0.0480585
           dz  0.0613024-0.0716361-0.2983417-0.0659781 0.0791946 0.3163232
   9 c     dx -0.2286880-0.0046648-0.1353094 0.0098380 0.0007604 0.0082874
           dy  0.0097017-0.0672084-0.0169669-0.0064384 0.0024714-0.0059207
           dz -0.0750418-0.0268847-0.2256233-0.0223353-0.0009209-0.0165620
  10 h     dx -0.0170704 0.0051405 0.0080763 0.0008969-0.0008067-0.0000793
           dy -0.0021323 0.0032077 0.0003472-0.0005863-0.0036114 0.0011230
           dz -0.0225421 0.0052967 0.0094825 0.0008394 0.0009744 0.0007670
  11 c     dx  0.0522476-0.0094085-0.0077351-0.0029275 0.0005958-0.0046297
           dy -0.0192139 0.0078918-0.0121126 0.0008412 0.0069505-0.0011995
           dz -0.0496045-0.0049782-0.0484631-0.0036056-0.0014058-0.0008345
  12 h     dx  0.0010378 0.0014934 0.0018548 0.0003132 0.0000862 0.0004655
           dy  0.0016678 0.0063851-0.0030791-0.0003065 0.0002265-0.0003612
           dz  0.0028877-0.0032698-0.0042102-0.0012279-0.0000802-0.0009555
  13 h     dx -0.0000017-0.0000053 0.0000153 0.0000014 0.0000040-0.0000023
           dy -0.0000145-0.0000237 0.0000472 0.0000011 0.0000083-0.0000023
           dz -0.0000194 0.0000098 0.0000044-0.0000004-0.0000033-0.0000055
  14 c     dx -0.0000789-0.0000188 0.0000310-0.0000025-0.0000042-0.0000022
           dy  0.0000146-0.0000213 0.0000411 0.0000022-0.0000035-0.0000028
           dz  0.0000343 0.0000320 0.0000086 0.0000053-0.0000068 0.0000032
  15 c     dx  0.0000798 0.0001067-0.0000718 0.0000104-0.0000233 0.0000086
           dy -0.0002112-0.0000195 0.0001448 0.0000037 0.0000121-0.0000089
           dz  0.0000040-0.0000696 0.0000643 0.0000049 0.0000363 0.0000203
  16 h     dx -0.0000357-0.0000005-0.0000146-0.0000022-0.0000095-0.0000009
           dy -0.0000326 0.0000349-0.0000733-0.0000021-0.0000037 0.0000047
           dz -0.0000049 0.0000152-0.0000145-0.0000101-0.0000233-0.0000185
  17 c     dx -0.0004389 0.0000996-0.0000526 0.0000121-0.0000095-0.0000095
           dy  0.0000000-0.0000702-0.0002489-0.0000000-0.0001145-0.0000276
           dz -0.0002429-0.0004515 0.0000400 0.0000036 0.0000815 0.0000553
  18 h     dx  0.0006019-0.0000984 0.0001028-0.0000194 0.0000514 0.0000212
           dy  0.0000153-0.0006090-0.0003798 0.0000021 0.0001624 0.0000565
           dz  0.0002410 0.0000500-0.0000771-0.0000023-0.0001596-0.0001069
  19 c     dx  0.0000533-0.0001516 0.0000121-0.0000107 0.0000353 0.0000226
           dy  0.0002087-0.0001027 0.0002326-0.0000027 0.0000342-0.0000034
           dz -0.0000497 0.0000070 0.0000547-0.0000247 0.0000290 0.0000267
  20 h     dx -0.0001024 0.0000260 0.0000239 0.0000043 0.0000006-0.0000153
           dy  0.0001510 0.0000474-0.0000442-0.0000155 0.0000002 0.0000156
           dz  0.0000776 0.0000106-0.0000639 0.0000307-0.0000163-0.0000192
  21 c     dx -0.0001162 0.0000601-0.0000558 0.0000069-0.0000073-0.0000149
           dy -0.0000386-0.0000060 0.0000228 0.0000025 0.0000007 0.0000033
           dz -0.0000760 0.0000392-0.0000003-0.0000094 0.0000018 0.0000009
  22 h     dx  0.0000103 0.0000091-0.0000253-0.0000023-0.0000054 0.0000026
           dy -0.0000098-0.0000196 0.0000437-0.0000004 0.0000101 0.0000009
           dz  0.0000200-0.0000061 0.0000074 0.0000032-0.0000043-0.0000039
  23 c     dx  0.0000484-0.0000061 0.0000016 0.0000001-0.0000034-0.0000015
           dy -0.0000385-0.0000056 0.0000569 0.0000027 0.0000085-0.0000044
           dz -0.0000033 0.0000001 0.0000084 0.0000006 0.0000026-0.0000005
  24 h     dx -0.0000104 0.0000042-0.0000033 0.0000000-0.0000017-0.0000012
           dy -0.0000132-0.0000065 0.0000259 0.0000025 0.0000067-0.0000037
           dz  0.0000029-0.0000081 0.0000070 0.0000017-0.0000005-0.0000031

   ATOM              9 c                          10 h 
                  dx        dy        dz        dx        dy        dz
   9 c     dx  0.7132334
           dy -0.0942625 0.1774926
           dz  0.0026136 0.1194573 0.6358005
  10 h     dx -0.3065908 0.0578852 0.0594441 0.3255796
           dy  0.0578631-0.0501183-0.0182999-0.0638044 0.0409554
           dz  0.0594738-0.0182912-0.0727567-0.0639963 0.0215299 0.0724649
  11 c     dx -0.1375479 0.0159360 0.0136007-0.0036236 0.0081177 0.0300096
           dy  0.0302654-0.0805334-0.0607036 0.0008857 0.0011147-0.0059359
           dz  0.0743066-0.0702328-0.3035344-0.0006096-0.0009990-0.0018947
  12 h     dx  0.0091587 0.0006915 0.0072276 0.0007128-0.0008210-0.0003946
           dy -0.0067020 0.0024098-0.0055162-0.0006258-0.0035117 0.0012193
           dz -0.0234008-0.0007346-0.0160046 0.0005341 0.0010842 0.0009182
  13 h     dx -0.0000059-0.0000086 0.0000061 0.0000014 0.0000062-0.0000012
           dy -0.0000443-0.0000122 0.0000039 0.0000067-0.0000009-0.0000053
           dz -0.0000116 0.0000111 0.0000089 0.0000042-0.0000016 0.0000008
  14 c     dx -0.0000410 0.0000079 0.0000186 0.0000253-0.0000542-0.0000042
           dy  0.0000145 0.0000403-0.0001183 0.0000197-0.0000286 0.0000032
           dz  0.0000210 0.0000126-0.0000180 0.0000051-0.0000122-0.0000069
  15 c     dx  0.0002014-0.0000317 0.0000187-0.0000757 0.0001223 0.0000349
           dy -0.0001424 0.0000512 0.0000253 0.0000215-0.0000109 0.0000004
           dz -0.0000054-0.0000229-0.0000656-0.0000129 0.0000067-0.0000052
  16 h     dx  0.0000287 0.0000319-0.0000401 0.0000301-0.0000641-0.0000064
           dy  0.0000501 0.0000771-0.0000100 0.0000217-0.0000549-0.0000053
           dz -0.0000304 0.0000115 0.0000088 0.0000165-0.0000168 0.0000186
  17 c     dx  0.0000804 0.0004339-0.0002190 0.0000547-0.0000865 0.0000102
           dy  0.0002737 0.0001214-0.0002045 0.0000141-0.0000654 0.0000242
           dz  0.0000692 0.0000015-0.0005124-0.0000187 0.0000043 0.0000052
  18 h     dx -0.0002173 0.0000113 0.0001148-0.0001039 0.0001349-0.0000157
           dy  0.0004037-0.0006687 0.0004343-0.0000711 0.0001441-0.0000310
           dz -0.0000309 0.0000941 0.0004548 0.0000280-0.0000437-0.0000065
  19 c     dx -0.0003065 0.0000301-0.0001110-0.0000348 0.0000333-0.0000198
           dy -0.0002749-0.0002768 0.0000392-0.0000118 0.0000359-0.0000186
           dz -0.0001135-0.0000533 0.0000288-0.0000134 0.0000324 0.0000043
  20 h     dx  0.0000956-0.0000089 0.0000494 0.0000295-0.0000217-0.0000015
           dy -0.0000223-0.0000813 0.0000016-0.0000147 0.0000096-0.0000051
           dz  0.0000716 0.0000165-0.0000870 0.0000059-0.0000150-0.0000111
  21 c     dx  0.0001484 0.0000765 0.0000637 0.0000253-0.0000249 0.0000005
           dy -0.0000102-0.0000336 0.0001135-0.0000188 0.0000288 0.0000080
           dz -0.0000034 0.0000224 0.0001620-0.0000044 0.0000035 0.0000050
  22 h     dx  0.0000202 0.0000132-0.0000090-0.0000006-0.0000089 0.0000004
           dy -0.0000524-0.0000306 0.0000170-0.0000032 0.0000120-0.0000016
           dz -0.0000134-0.0000148-0.0000015 0.0000017-0.0000015-0.0000014
  23 c     dx  0.0000062 0.0000332-0.0001178 0.0000132-0.0000195-0.0000026
           dy -0.0000248-0.0000003 0.0000312 0.0000021 0.0000133-0.0000011
           dz -0.0000067-0.0000217-0.0000054 0.0000009 0.0000043-0.0000000
  24 h     dx  0.0000106 0.0000068 0.0000007 0.0000053-0.0000101-0.0000007
           dy -0.0000112-0.0000130 0.0000124 0.0000023 0.0000101-0.0000008
           dz -0.0000021 0.0000044-0.0000118 0.0000022 0.0000002 0.0000002

   ATOM             11 c                          12 h 
                  dx        dy        dz        dx        dy        dz
  11 c     dx  0.6850869
           dy -0.0761261 0.1747074
           dz  0.0561553 0.1202145 0.6684476
  12 h     dx -0.1970379-0.0077999-0.1378478 0.2070800
           dy -0.0078466-0.0390830-0.0163909 0.0072561 0.0288962
           dz -0.1378656-0.0161916-0.1938113 0.1492498 0.0193612 0.2033589
  13 h     dx -0.0000116-0.0000096-0.0000090 0.0000039 0.0000037-0.0000020
           dy -0.0000321-0.0000097-0.0000344 0.0000071-0.0000025 0.0000096
           dz  0.0000009-0.0000054-0.0000008-0.0000042 0.0000062-0.0000010
  14 c     dx  0.0000562 0.0000286-0.0000711 0.0000056-0.0000255 0.0000367
           dy -0.0000388 0.0000877 0.0000616 0.0000311-0.0000526 0.0000399
           dz -0.0000408 0.0000076-0.0000076 0.0000241-0.0000380 0.0000296
  15 c     dx  0.0001517-0.0000009 0.0000626-0.0000060 0.0000410-0.0001026
           dy -0.0000021 0.0000254-0.0001349-0.0000005 0.0000118 0.0000164
           dz  0.0000391 0.0000594-0.0000563 0.0000251-0.0000533 0.0000345
  16 h     dx -0.0000008 0.0000698-0.0000048 0.0000205-0.0000587 0.0000573
           dy  0.0000323 0.0000731 0.0000250 0.0000028-0.0000225 0.0000286
           dz  0.0000255-0.0000437 0.0000632-0.0000237 0.0000585-0.0000466
  17 c     dx -0.0001213 0.0003458 0.0001958 0.0000175-0.0000353 0.0000352
           dy  0.0000375-0.0000806 0.0003561-0.0000415 0.0000461-0.0000587
           dz  0.0002607 0.0005355 0.0001039 0.0000011-0.0000524 0.0000162
  18 h     dx  0.0000972-0.0000685-0.0003781-0.0000339 0.0000512-0.0000462
           dy -0.0000990-0.0004360 0.0003121-0.0000265 0.0000986-0.0001028
           dz -0.0002526 0.0001162-0.0003743-0.0000107 0.0000062-0.0000234
  19 c     dx -0.0003287-0.0000744 0.0000522-0.0000606 0.0000581-0.0000326
           dy -0.0001161-0.0001456-0.0001886-0.0000014-0.0000032 0.0000244
           dz  0.0000624 0.0000096-0.0000292-0.0000003-0.0000108 0.0000061
  20 h     dx  0.0000677 0.0000006-0.0000439 0.0000281-0.0000209 0.0000273
           dy -0.0000270-0.0000203-0.0000051-0.0000160-0.0000023-0.0000046
           dz -0.0000907 0.0000609 0.0000118 0.0000168-0.0000072 0.0000046
  21 c     dx  0.0000620 0.0000217 0.0000019 0.0000158-0.0000030 0.0000104
           dy  0.0001363-0.0000409-0.0001186-0.0000163 0.0000327-0.0000322
           dz  0.0000829-0.0001228-0.0000580-0.0000069 0.0000154-0.0000146
  22 h     dx  0.0000119 0.0000152 0.0000069-0.0000012-0.0000092 0.0000044
           dy -0.0000183-0.0000222-0.0000266-0.0000014 0.0000071-0.0000025
           dz -0.0000123-0.0000098-0.0000119-0.0000026 0.0000030 0.0000004
  23 c     dx -0.0000744 0.0000589 0.0000989 0.0000148-0.0000298 0.0000266
           dy -0.0000678-0.0000390-0.0000054 0.0000126 0.0000035-0.0000020
           dz -0.0000213 0.0000026-0.0000028 0.0000085-0.0000016-0.0000030
  24 h     dx  0.0000085 0.0000079-0.0000015 0.0000037-0.0000079 0.0000079
           dy -0.0000078-0.0000154-0.0000118 0.0000052 0.0000084-0.0000039
           dz -0.0000114 0.0000025 0.0000069-0.0000013 0.0000055-0.0000014

   ATOM             13 h                          14 c 
                  dx        dy        dz        dx        dy        dz
  13 h     dx  0.2470591
           dy  0.1336607 0.1518399
           dz  0.0497089 0.0409631 0.0386729
  14 c     dx -0.2336298-0.1235264-0.0454383 0.7027520
           dy -0.1234733-0.1460735-0.0364388 0.0232748 0.6545369
           dz -0.0454163-0.0364766-0.0469359 0.0519816 0.1271104 0.1616691
  15 c     dx  0.0064455-0.0270364-0.0060718-0.1292416 0.0552350 0.0073713
           dy  0.0039100-0.0123750-0.0030605-0.0060090-0.3167028-0.0618818
           dz  0.0013107-0.0055495 0.0005279-0.0072414-0.0568811-0.0723066
  16 h     dx  0.0007962 0.0003696 0.0004623 0.0000492-0.0008576-0.0003440
           dy -0.0006126 0.0009603 0.0010536 0.0301027-0.0073955 0.0002643
           dz  0.0002184 0.0011375-0.0034183 0.0070222-0.0022815 0.0018490
  17 c     dx  0.0015559 0.0024598 0.0001075 0.0437634-0.0646411-0.0123029
           dy  0.0013446-0.0051390-0.0029350-0.0223432-0.0351029-0.0118221
           dz -0.0001830-0.0028377 0.0069907-0.0021744-0.0152142 0.0031489
  18 h     dx  0.0001732-0.0014138-0.0003327-0.0040810-0.0025864-0.0015868
           dy  0.0002971-0.0006470-0.0001734-0.0032341 0.0004935-0.0018222
           dz  0.0000686-0.0003393 0.0001026-0.0018208-0.0018651 0.0069195
  19 c     dx  0.0000317 0.0009883 0.0003042-0.0230528 0.0310036 0.0061688
           dy  0.0009624-0.0006229 0.0001073 0.0314894-0.0412249-0.0053060
           dz  0.0002891 0.0000863-0.0006239 0.0062914-0.0053807-0.0092365
  20 h     dx -0.0000018-0.0001460 0.0000739-0.0000214 0.0009801 0.0002486
           dy -0.0001276-0.0000030 0.0003066 0.0009480-0.0005909 0.0000839
           dz  0.0000794 0.0003242-0.0013191 0.0002564 0.0000932-0.0004600
  21 c     dx -0.0040088 0.0030458-0.0002154-0.0563119 0.0089975-0.0029530
           dy  0.0041657 0.0002108-0.0014046-0.0340496 0.0582015 0.0094643
           dz  0.0000612-0.0014998 0.0071902-0.0131523 0.0129211 0.0088070
  22 h     dx -0.0011127 0.0007045 0.0000527-0.0022184-0.0043040-0.0017979
           dy -0.0010054 0.0003991-0.0000536-0.0031810-0.0012310-0.0023250
           dz -0.0003482 0.0000859 0.0002640-0.0015269-0.0024304 0.0068118
  23 c     dx -0.0184409 0.0116154 0.0011415-0.2995404 0.0465487-0.0084428
           dy -0.0193600 0.0108890 0.0005902 0.1078622-0.1560641-0.0146625
           dz -0.0062468 0.0031133 0.0020138 0.0061383-0.0196044-0.0618828
  24 h     dx  0.0011304-0.0007137 0.0002238 0.0015200 0.0297095 0.0070478
           dy  0.0002532 0.0006450 0.0010619-0.0012805-0.0087598-0.0025699
           dz  0.0004561 0.0009824-0.0034691-0.0003182-0.0000765 0.0015739

   ATOM             15 c                          16 h 
                  dx        dy        dz        dx        dy        dz
  15 c     dx  0.7171060
           dy -0.0356861 0.6440956
           dz  0.0393541 0.1188437 0.1608767
  16 h     dx -0.2880080 0.1011223 0.0032126 0.3061702
           dy  0.1011020-0.1022751-0.0075350-0.1096518 0.1042804
           dz  0.0031406-0.0074915-0.0367599-0.0028747 0.0097923 0.0271916
  17 c     dx -0.2581705-0.0621731-0.0307788-0.0190333-0.0177561-0.0059704
           dy -0.1235176-0.1915717-0.0407518 0.0129826 0.0113206 0.0031048
           dz -0.0450809-0.0354864-0.0739393 0.0012470 0.0005409 0.0030013
  18 h     dx  0.0074874-0.0261582-0.0057075 0.0010613 0.0005875 0.0005182
           dy  0.0042582-0.0122449-0.0032335-0.0002327 0.0006536 0.0010216
           dz  0.0014324-0.0059213 0.0018125 0.0003357 0.0011590-0.0036790
  19 c     dx -0.0561457-0.0335422-0.0133121-0.0022429-0.0032510-0.0014900
           dy  0.0084950 0.0585569 0.0124476-0.0042265-0.0012439-0.0023045
           dz -0.0031126 0.0090626 0.0109327-0.0017458-0.0022121 0.0064155
  20 h     dx -0.0040291 0.0040463 0.0001070-0.0011426-0.0010056-0.0003526
           dy  0.0031282 0.0001544-0.0013225 0.0007081 0.0004223 0.0000705
           dz -0.0002041-0.0013175 0.0066838 0.0000425-0.0000653 0.0002898
  21 c     dx -0.0096857-0.0237036-0.0056802 0.0004112-0.0007625-0.0001188
           dy -0.0230769-0.0520525-0.0121440-0.0007872-0.0009235-0.0001875
           dz -0.0055126-0.0121718-0.0121364-0.0001190-0.0001609-0.0004517
  22 h     dx  0.0004605-0.0007482-0.0001044-0.0000507 0.0000558 0.0001264
           dy -0.0007691-0.0009587-0.0001693 0.0000645 0.0000359 0.0003589
           dz -0.0000985-0.0001373-0.0005977 0.0001305 0.0003484-0.0013445
  23 c     dx  0.0192437 0.0773328 0.0194313 0.0020124-0.0004729-0.0005700
           dy  0.0344255-0.0161244-0.0025987 0.0006511-0.0053732-0.0030058
           dz  0.0091955 0.0009084 0.0075403-0.0003080-0.0031163 0.0067298
  24 h     dx -0.0053923 0.0017734-0.0006311-0.0001347 0.0015812 0.0003446
           dy  0.0029246 0.0015791-0.0012166-0.0001200-0.0005646-0.0002048
           dz -0.0003527-0.0013180 0.0073439-0.0000617-0.0000620 0.0002414

   ATOM             17 c                          18 h 
                  dx        dy        dz        dx        dy        dz
  17 c     dx  0.6581581
           dy -0.0176102 0.7087011
           dz  0.0379308 0.1324164 0.1695676
  18 h     dx -0.0629248 0.0312415 0.0052155 0.0627244
           dy  0.0315440-0.3205288-0.0631162-0.0338289 0.3395149
           dz  0.0052251-0.0622965-0.0515163-0.0049781 0.0690728 0.0421227
  19 c     dx -0.2992856 0.1082523 0.0067144 0.0014789-0.0006394-0.0003833
           dy  0.0468583-0.1574219-0.0186023 0.0296936-0.0076194-0.0003438
           dz -0.0076319-0.0137883-0.0666274 0.0067472-0.0025649 0.0032085
  20 h     dx -0.0189184-0.0193198-0.0062188 0.0011238 0.0000135 0.0004273
           dy  0.0112642 0.0109960 0.0027825-0.0007475 0.0004885 0.0010131
           dz  0.0010039 0.0003816 0.0032356 0.0002910 0.0010138-0.0037468
  21 c     dx  0.0194433 0.0350189 0.0091351-0.0053857 0.0023797-0.0003251
           dy  0.0772883-0.0156369 0.0007640 0.0017921 0.0014747-0.0012557
           dz  0.0192513-0.0027825 0.0084053-0.0005508-0.0010820 0.0070018
  22 h     dx  0.0020006 0.0006668-0.0002781-0.0001487-0.0001558-0.0000561
           dy -0.0004415-0.0054895-0.0031152 0.0015848-0.0004060-0.0000506
           dz -0.0005682-0.0030292 0.0068075 0.0003353-0.0001568 0.0001877
  23 c     dx -0.0648132-0.0064722-0.0061927-0.0012453-0.0002297-0.0000693
           dy -0.0065062-0.0000439 0.0011044-0.0002202 0.0006670 0.0003643
           dz -0.0061515 0.0011653-0.0077217-0.0001011 0.0003235-0.0007047
  24 h     dx -0.0012922-0.0002307-0.0000831 0.0001430-0.0000083 0.0001152
           dy -0.0002319 0.0006484 0.0003742 0.0000000-0.0001074 0.0002742
           dz -0.0000872 0.0004055-0.0008918 0.0001216 0.0002555-0.0012235

   ATOM             19 c                          20 h 
                  dx        dy        dz        dx        dy        dz
  19 c     dx  0.7028363
           dy  0.0235219 0.6574238
           dz  0.0505691 0.1257591 0.1647256
  20 h     dx -0.2331571-0.1242452-0.0445661 0.2468406
           dy -0.1246988-0.1472504-0.0360061 0.1348243 0.1530794
           dz -0.0444678-0.0357798-0.0476917 0.0487403 0.0405818 0.0386817
  21 c     dx -0.1294581 0.0552255 0.0075684 0.0065347-0.0267209-0.0060463
           dy -0.0060696-0.3176168-0.0616044 0.0041080-0.0124230-0.0031722
           dz -0.0070535-0.0569108-0.0729321 0.0013021-0.0055097 0.0008378
  22 h     dx  0.0000124-0.0007713-0.0003432 0.0008013 0.0003583 0.0004511
           dy  0.0301744-0.0071979 0.0002168-0.0006388 0.0009588 0.0010730
           dz  0.0070410-0.0022455 0.0019897 0.0001940 0.0011255-0.0034992
  23 c     dx  0.0435789-0.0645136-0.0124146 0.0015397 0.0024352 0.0001371
           dy -0.0216705-0.0355977-0.0116726 0.0013417-0.0049676-0.0028821
           dz -0.0022027-0.0150385 0.0026492-0.0001178-0.0027788 0.0069179
  24 h     dx -0.0040527-0.0025897-0.0015635 0.0001825-0.0013826-0.0003343
           dy -0.0037440 0.0004961-0.0020206 0.0003051-0.0008036-0.0002256
           dz -0.0018443-0.0019410 0.0071401 0.0000742-0.0003494 0.0001527

   ATOM             21 c                          22 h 
                  dx        dy        dz        dx        dy        dz
  21 c     dx  0.7167920
           dy -0.0363479 0.6435567
           dz  0.0385627 0.1194202 0.1591545
  22 h     dx -0.2883461 0.1007292 0.0036408 0.3063690
           dy  0.1008179-0.1019783-0.0078831-0.1092959 0.1040581
           dz  0.0036763-0.0078749-0.0363291-0.0034445 0.0100313 0.0270775
  23 c     dx -0.2577188-0.0616822-0.0307293-0.0188168-0.0178829-0.0059158
           dy -0.1230020-0.1893231-0.0411729 0.0131014 0.0111797 0.0032756
           dz -0.0452904-0.0362725-0.0699124 0.0014701 0.0008038 0.0020646
  24 h     dx  0.0075722-0.0259902-0.0056963 0.0010513 0.0005853 0.0005211
           dy  0.0049852-0.0136130-0.0032082-0.0003839 0.0007112 0.0010213
           dz  0.0016815-0.0056955 0.0003370 0.0002885 0.0010979-0.0034270

   ATOM             23 c                          24 h 
                  dx        dy        dz        dx        dy        dz
  23 c     dx  0.6569773
           dy -0.0180496 0.6994416
           dz  0.0384250 0.1346333 0.1613166
  24 h     dx -0.0628410 0.0314261 0.0051698 0.0620870
           dy  0.0314376-0.3145405-0.0640442-0.0341558 0.3343367
           dz  0.0051627-0.0640419-0.0489930-0.0051179 0.0707575 0.0412083
 

   *** projected hessian written onto $hessian (projected), file=<hessian> ***

 dipole moment in principle axis system (a.u.) :
     0.0042051783    -0.1611029559     0.0432197726
 norm :  0.166852613621415     

 rotational constants b for rotations around axis of inertia
 and optical intensities for (1 <-- 0) transition

   b   :     0.0154655075     0.0633881074     0.0143402835   (cm**(-1))
   b   :         463.6442        1900.3277         429.9109     (MHz)
  int. :     0.0000176835     0.0259541624     0.0018679487     (a.u.)

   x   :     0.9950659882     0.0335758017    -0.0933613665
   y   :    -0.0330732344     0.9994289360     0.0069255317
   z   :     0.0935405815    -0.0038035987     0.9956082022

   ***  normal modes written onto $vibrational normal modes, file=<vib_normal_modes>  ***

   ***  vibrational spectroscopic data written onto$vibrational spectrum   
        file=<vibspectrum>  ***

          ---------------------------------------------------
          NORMAL MODES and VIBRATIONAL FREQUENCIES (cm**(-1))
          ---------------------------------------------------

 imaginary wave numbers indicate a negative curvature of the energy surface.
 zero frequency modes have no physical meaning except being generators of
 translations and rotations. each vibrational normal mode - given in terms of
 cartesian displacement vectors of all atoms - has been normalized to unity.
 to obtain mass-weigthed normal coordinates in a.u. divide the tabulated
 modes by sqrt(reduced mass * 1822.88853).
 band intensities or cross sections refer to independent non-degenerate normal
 modes, that is, the intensities of degenerate modes have yet to be added.
 dDIP/dQ is the normal mode derivative of the dipole moment.

 WARNING: values of IR intensities are questionable for saddle point structures


       mode               1        2        3        4        5        6

     frequency          i4.29     0.00     0.00     0.00     0.00     0.00

     symmetry            a                                                

        IR               YES       -        -        -        -        - 
|dDIP/dQ|   (a.u.)     0.0000   0.0000   0.0000   0.0000   0.0000   0.0000
intensity (km/mol)       0.00     0.00     0.00     0.00     0.00     0.00
intensity (  %   )       0.00     0.00     0.00     0.00     0.00     0.00
 
       RAMAN             YES       -        -        -        -        - 
 
  1   h           x  -0.12721  0.04649  0.21683  0.04795  0.20855 -0.25124
                  y   0.20118 -0.16408  0.11389 -0.08816 -0.04672  0.02340
                  z  -0.08182  0.03056  0.21993  0.02306 -0.00298  0.07560
  2   c           x  -0.06826  0.06468  0.13565 -0.02743  0.20012 -0.16745
                  y   0.12860 -0.16996  0.07944 -0.08569 -0.02671  0.00955
                  z  -0.04547  0.03696  0.20904  0.00292 -0.01098  0.10122
  3   c           x  -0.02278  0.08208  0.05808 -0.10042  0.17794 -0.08964
                  y  -0.01099 -0.17698  0.05263 -0.08283 -0.08957 -0.02390
                  z  -0.08068  0.01995  0.28923  0.07625  0.01613  0.02535
  4   h           x  -0.04668  0.07742  0.07899 -0.08173  0.16942 -0.11293
                  y  -0.04869 -0.17656  0.06626 -0.08307 -0.15858 -0.03606
                  z  -0.14393  0.00032  0.36273  0.15351  0.04523 -0.05933
  5   c           x   0.05277  0.10550 -0.04641 -0.19750  0.16615  0.01806
                  y  -0.10265 -0.18455  0.00826 -0.07965 -0.06377 -0.04174
                  z  -0.03554  0.02811  0.27471  0.05031  0.00585  0.05813
  6   h           x   0.08797  0.11907 -0.10689 -0.25443  0.14857  0.07869
                  y  -0.21155 -0.19003 -0.01267 -0.07742 -0.11267 -0.06779
                  z  -0.06327  0.01486  0.33696  0.10736  0.02695 -0.00097
  7   c           x   0.08304  0.11150 -0.07330 -0.22157  0.17670  0.04794
                  y  -0.05549 -0.18510 -0.00929 -0.07935  0.02495 -0.02610
                  z   0.04549  0.05331  0.18001 -0.04902 -0.03155  0.16690
  8   h           x   0.14165  0.12973 -0.15468 -0.29720  0.16731  0.13180
                  y  -0.12797 -0.19099 -0.04386 -0.07687  0.04510 -0.03999
                  z   0.08067  0.05966  0.16855 -0.06926 -0.03957  0.19243
  9   c           x   0.03749  0.09407  0.00436 -0.14848  0.19909 -0.02993
                  y   0.08423 -0.17807  0.01757 -0.08222  0.08780  0.00737
                  z   0.08114  0.07033  0.09992 -0.12234 -0.05866  0.24281
 10   h           x   0.06091  0.09875 -0.01659 -0.16724  0.20718 -0.00666
                  y   0.12104 -0.17849  0.00390 -0.08198  0.15689  0.01954
                  z   0.14410  0.08994  0.02612 -0.19968 -0.08778  0.32746
 11   c           x  -0.03818  0.07067  0.10882 -0.05144  0.21075 -0.13761
                  y   0.17655 -0.17050  0.06193 -0.08539  0.06195  0.02518
                  z   0.03541  0.06214  0.11444 -0.09634 -0.04836  0.20993
 12   h           x  -0.07379  0.05712  0.16919  0.00534  0.22769 -0.19822
                  y   0.28683 -0.16504  0.08279 -0.08762  0.11094  0.05122
                  z   0.06224  0.07537  0.05181 -0.15346 -0.06946  0.26897
 13   h           x   0.08684  0.07673  0.08515 -0.10233 -0.21782 -0.18116
                  y  -0.15511 -0.17355  0.03206 -0.08404  0.14480  0.03210
                  z  -0.04068  0.04619 -0.18314 -0.17151 -0.06544  0.19522
 14   c           x   0.04559  0.08122  0.06483 -0.11868 -0.18294 -0.15430
                  y  -0.10325 -0.17580  0.02958 -0.08316  0.08787  0.01423
                  z  -0.02306  0.03461 -0.09471 -0.10853 -0.04314  0.13844
 15   c           x  -0.02969  0.08809  0.03347 -0.14208 -0.10189 -0.10847
                  y  -0.07862 -0.17750  0.01867 -0.08244  0.09945  0.01136
                  z  -0.17078  0.04569 -0.06333 -0.12402 -0.05126  0.17522
 16   h           x  -0.04730  0.08894  0.02944 -0.14387 -0.07353 -0.09972
                  y  -0.11203 -0.17657  0.01269 -0.08277  0.16541  0.02701
                  z  -0.30268  0.06591 -0.12729 -0.19908 -0.07991  0.26068
 17   c           x  -0.08268  0.09384  0.00743 -0.16304 -0.05702 -0.07400
                  y  -0.01195 -0.18037  0.01550 -0.08131  0.02642 -0.01155
                  z  -0.14810  0.03085  0.05015 -0.04324 -0.02265  0.10243
 18   h           x  -0.14041  0.09908 -0.01648 -0.18077  0.00629 -0.03883
                  y   0.00608 -0.18166  0.00723 -0.08077  0.03527 -0.01371
                  z  -0.26036  0.03945  0.07477 -0.05513 -0.02892  0.13089
 19   c           x  -0.06017  0.09270  0.01283 -0.16053 -0.09331 -0.08545
                  y   0.02970 -0.18155  0.02327 -0.08090 -0.05827 -0.03159
                  z   0.02291  0.00490  0.13227  0.05313  0.01412 -0.00728
 20   h           x  -0.10167  0.09712 -0.00722 -0.17660 -0.05807 -0.05881
                  y   0.08104 -0.18377  0.02089 -0.08003 -0.11507 -0.04936
                  z   0.04155 -0.00662  0.22064  0.11593  0.03636 -0.06381
 21   c           x   0.01495  0.08584  0.04411 -0.13720 -0.17436 -0.13119
                  y   0.00526 -0.17986  0.03416 -0.08161 -0.06998 -0.02877
                  z   0.17073 -0.00622  0.10105  0.06875  0.02230 -0.04420
 22   h           x   0.03238  0.08495  0.04830 -0.13525 -0.20258 -0.14009
                  y   0.03777 -0.18077  0.04021 -0.08129 -0.13599 -0.04439
                  z   0.30380 -0.02644  0.16509  0.14386  0.05095 -0.12968
 23   c           x   0.06796  0.08009  0.07015 -0.11624 -0.21920 -0.16566
                  y  -0.06124 -0.17698  0.03733 -0.08274  0.00313 -0.00584
                  z   0.14776  0.00864 -0.01250 -0.01211 -0.00635  0.02869
 24   h           x   0.12667  0.07474  0.09458 -0.09802 -0.28230 -0.20134
                  y  -0.08037 -0.17566  0.04583 -0.08330 -0.00594 -0.00361
                  z   0.26282  0.00000 -0.03688  0.00000  0.00000  0.00000

reduced mass(g/mol)     3.748    6.436    5.114    5.361    5.556    5.035


       mode               7        8        9       10       11       12

     frequency           0.00     5.08    22.51    49.66    57.51    64.29

     symmetry                     a        a        a        a        a   

        IR                -       YES      YES      YES      YES      YES
|dDIP/dQ|   (a.u.)     0.0000   0.0001   0.0001   0.0003   0.0002   0.0002
intensity (km/mol)       0.00     0.02     0.03     0.13     0.06     0.10
intensity (  %   )       0.00     0.01     0.02     0.08     0.04     0.06
 
       RAMAN              -       YES      YES      YES      YES      YES
 
  1   h           x   0.06279  0.17637 -0.00734  0.04293  0.08777  0.04530
                  y  -0.14458  0.16679 -0.19518  0.17635  0.13201  0.34388
                  z   0.01456  0.01539  0.03524 -0.10061 -0.03606 -0.12967
  2   c           x   0.03798  0.10624  0.00871  0.01959  0.07704  0.02508
                  y  -0.08300  0.11110 -0.12586  0.03604  0.07221  0.21962
                  z  -0.00976  0.01358  0.01916 -0.06578 -0.02136 -0.09852
  3   c           x   0.01396  0.03855  0.00597 -0.00170  0.10238  0.00470
                  y  -0.02309  0.05908 -0.16590 -0.09297  0.22586  0.09331
                  z   0.00991  0.08592  0.02472 -0.03465 -0.05842 -0.06840
  4   h           x   0.02012  0.05646 -0.01173  0.00448  0.13285  0.00806
                  y  -0.03814  0.07534 -0.26530 -0.05494  0.40658  0.11398
                  z   0.04932  0.14416  0.04414 -0.04425 -0.10152 -0.07378
  5   c           x  -0.01800 -0.05166  0.02566 -0.03123  0.09078 -0.01969
                  y   0.05622 -0.01179 -0.07861 -0.27309  0.15138 -0.05549
                  z  -0.02057  0.08256  0.00513  0.00803 -0.04039 -0.03310
  6   h           x  -0.03673 -0.10473  0.02339 -0.04863  0.11176 -0.03535
                  y   0.10295 -0.05375 -0.10976 -0.37735  0.27367 -0.15127
                  z  -0.00502  0.13873  0.00967  0.03276 -0.07002 -0.01050
  7   c           x  -0.02593 -0.07391  0.04807 -0.03982  0.05395 -0.02378
                  y   0.07560 -0.02916  0.05071 -0.32399 -0.07603 -0.08014
                  z  -0.07086  0.00655 -0.02039  0.01993  0.01434 -0.02721
  8   h           x  -0.05083 -0.14413  0.06326 -0.06347  0.04545 -0.04246
                  y   0.13739 -0.08443  0.12046 -0.46822 -0.13386 -0.19469
                  z  -0.09444  0.00367 -0.03574  0.05375  0.02819 -0.00013
  9   c           x  -0.00188 -0.00595  0.05120 -0.01862  0.02825 -0.00353
                  y   0.01561  0.02373  0.09277 -0.19502 -0.22920  0.04357
                  z  -0.09069 -0.06557 -0.02653 -0.01097  0.05115 -0.05641
 10   h           x  -0.00806 -0.02333  0.06866 -0.02554 -0.00067 -0.00646
                  y   0.03071  0.01005  0.19487 -0.23748 -0.40874  0.02628
                  z  -0.12974 -0.12478 -0.04676 -0.00133  0.09442 -0.05261
 11   c           x   0.03007  0.08388  0.03143  0.01116  0.03976  0.02094
                  y  -0.06367  0.09343  0.00381 -0.01539 -0.15577  0.19387
                  z  -0.06009 -0.06202 -0.00660 -0.05386  0.03362 -0.09226
 12   h           x   0.04875  0.13649  0.03315  0.02757  0.02059  0.03739
                  y  -0.11028  0.13401  0.03628  0.08394 -0.27834  0.29684
                  z  -0.07513 -0.11839 -0.01100 -0.07847  0.06310 -0.11740
 13   h           x   0.01363 -0.03139  0.12046 -0.00885  0.01907  0.00314
                  y  -0.02028 -0.15920 -0.16507  0.15643 -0.10541 -0.01353
                  z   0.28562  0.38743 -0.01965  0.06372 -0.03155 -0.11132
 14   c           x   0.00822 -0.02467  0.05542 -0.00098 -0.01812  0.00161
                  y  -0.00693 -0.10748 -0.07671  0.15163 -0.05838 -0.03853
                  z   0.26931  0.21331 -0.01068  0.04600 -0.01639 -0.03420
 15   c           x   0.00045 -0.03221 -0.09337  0.01546 -0.09711 -0.00361
                  y   0.01177 -0.08393 -0.11514  0.15635 -0.06901 -0.08122
                  z   0.18307  0.10609  0.08074  0.03228 -0.01029  0.15067
 16   h           x  -0.00016 -0.04531 -0.14462  0.02039 -0.12213 -0.00593
                  y   0.01293 -0.11821 -0.23481  0.16735 -0.12505 -0.08990
                  z   0.13213  0.19759  0.14227  0.03916 -0.02107  0.21498
 17   c           x  -0.00648 -0.02367 -0.17708  0.02643 -0.14404 -0.00552
                  y   0.02887 -0.01738 -0.00137  0.14774 -0.00941 -0.11020
                  z   0.16203 -0.11745  0.09151  0.00906  0.00998  0.24297
 18   h           x  -0.01237 -0.02974 -0.28991  0.03836 -0.20204 -0.00775
                  y   0.04304 -0.00018 -0.02894  0.14975 -0.01733 -0.13661
                  z   0.09492 -0.19837  0.15813 -0.00012  0.01412  0.36659
 19   c           x  -0.00563 -0.00769 -0.11232  0.02092 -0.11279 -0.00315
                  y   0.02722  0.02516  0.15040  0.13697  0.06177 -0.10121
                  z   0.22740 -0.23349  0.01293  0.00036  0.02395  0.16398
 20   h           x  -0.01095 -0.00225 -0.17904  0.02832 -0.15113 -0.00362
                  y   0.04034  0.07654  0.23970  0.13256  0.10972 -0.12583
                  z   0.21080 -0.40597  0.02136 -0.01741  0.03883  0.23842
 21   c           x   0.00212 -0.00011  0.03622  0.00515 -0.03421  0.00177
                  y   0.00857  0.00184  0.18950  0.13256  0.07320 -0.05916
                  z   0.31366 -0.12662 -0.07838  0.01332  0.01704 -0.02030
 22   h           x   0.00278  0.01227  0.08683  0.00064 -0.00973  0.00409
                  y   0.00729  0.03505  0.30842  0.12260  0.12854 -0.05014
                  z   0.36454 -0.21680 -0.14014  0.00528  0.02697 -0.08664
 23   c           x   0.00905 -0.00863  0.12018 -0.00613  0.01351  0.00471
                  y  -0.00853 -0.06453  0.07583  0.14023  0.01310 -0.02666
                  z   0.33464  0.09688 -0.09115  0.03635 -0.00300 -0.12430
 24   h           x   0.01510 -0.00281  0.23590 -0.01886  0.07529  0.00911
                  y  -0.02310 -0.08283  0.10618  0.13635  0.02169  0.00770
                  z   0.40180  0.18028 -0.16302  0.04655 -0.00803 -0.27281

reduced mass(g/mol)     5.829    3.794    3.805    5.097    3.920    4.268


       mode              13       14       15       16       17       18

     frequency         405.06   405.31   406.46   408.29   611.21   611.49

     symmetry            a        a        a        a        a        a   

        IR               YES      YES      YES      YES      YES      YES
|dDIP/dQ|   (a.u.)     0.0001   0.0000   0.0001   0.0003   0.0002   0.0002
intensity (km/mol)       0.01     0.00     0.01     0.13     0.07     0.07
intensity (  %   )       0.01     0.00     0.01     0.08     0.04     0.04
 
       RAMAN             YES      YES      YES      YES      YES      YES
 
  1   h           x   0.01009 -0.08117  0.01683 -0.00455 -0.06600 -0.11337
                  y   0.06293 -0.48974  0.10751 -0.03044  0.06261 -0.03440
                  z  -0.01542  0.11980 -0.02661  0.00793  0.26357 -0.19208
  2   c           x   0.00481 -0.03635  0.00792 -0.00178 -0.06902  0.13870
                  y   0.02877 -0.22170  0.04837 -0.01218  0.07441 -0.05196
                  z  -0.00684  0.05322 -0.01168  0.00326  0.26042 -0.12275
  3   c           x  -0.01361  0.01033 -0.03316  0.00686  0.15793  0.09313
                  y  -0.08328  0.06252 -0.20211  0.04016 -0.00869 -0.04736
                  z   0.01998 -0.01487  0.04895 -0.00915  0.06695 -0.13575
  4   h           x  -0.03098  0.02315 -0.07372  0.01414  0.08385  0.16768
                  y  -0.18569  0.13752 -0.44334  0.08402 -0.06796 -0.00301
                  z   0.04430 -0.03194  0.10634 -0.01947 -0.17970  0.13321
  5   c           x   0.00888  0.02618  0.02525 -0.00498  0.17272 -0.21121
                  y   0.05464  0.15966  0.15275 -0.02925 -0.02014 -0.01177
                  z  -0.01299 -0.03831 -0.03549  0.00745  0.03199 -0.19966
  6   h           x   0.01973  0.05811  0.05544 -0.01144 -0.00744 -0.19781
                  y   0.12044  0.35169  0.33530 -0.06772  0.04108 -0.02589
                  z  -0.02844 -0.08387 -0.07874  0.01655  0.20776 -0.21056
  7   c           x   0.00472 -0.03629  0.00851 -0.00156  0.06923 -0.13834
                  y   0.02892 -0.22156  0.04995 -0.00918 -0.07356  0.05129
                  z  -0.00674  0.05258 -0.01149  0.00291 -0.26014  0.12295
  8   h           x   0.01027 -0.07947  0.01787 -0.00391  0.06308  0.11176
                  y   0.06352 -0.48722  0.10867 -0.02404 -0.08060  0.01873
                  z  -0.01489  0.11508 -0.02539  0.00626 -0.25857  0.19596
  9   c           x  -0.01371  0.00998 -0.03272  0.00643 -0.15758 -0.09329
                  y  -0.08297  0.06041 -0.20251  0.04043  0.00973  0.04755
                  z   0.01987 -0.01480  0.04822 -0.00879 -0.06753  0.13527
 10   h           x  -0.02971  0.02163 -0.07194  0.01383 -0.08708 -0.17027
                  y  -0.18182  0.13282 -0.44465  0.08566  0.04962 -0.01177
                  z   0.04337 -0.03223  0.10561 -0.01953  0.18374 -0.13041
 11   c           x   0.00907  0.02630  0.02506 -0.00544 -0.17240  0.21174
                  y   0.05421  0.16125  0.15141 -0.03229  0.02062  0.01383
                  z  -0.01307 -0.03875 -0.03669  0.00828 -0.03247  0.19919
 12   h           x   0.01977  0.05662  0.05415 -0.01231  0.00505  0.19546
                  y   0.12054  0.35526  0.33254 -0.07452 -0.05949  0.01056
                  z  -0.02941 -0.08529 -0.08085  0.01872 -0.20401  0.21432
 13   h           x  -0.03268 -0.00160  0.00856 -0.02391  0.02978  0.03677
                  y  -0.09683 -0.00360  0.02437 -0.06798  0.16579  0.15638
                  z   0.40643  0.01547 -0.10200  0.28956  0.04696  0.04180
 14   c           x  -0.01515 -0.00091  0.00403 -0.01127  0.14854  0.14304
                  y  -0.04501 -0.00171  0.01169 -0.03083  0.01095  0.01711
                  z   0.18873  0.00734 -0.04779  0.13327  0.01496  0.01548
 15   c           x   0.01544  0.00051 -0.00790 -0.00750  0.12106  0.10433
                  y   0.04529  0.00180 -0.02227 -0.02172  0.03893  0.04136
                  z  -0.19137 -0.00743  0.09474  0.09448  0.01813  0.01835
 16   h           x   0.03351  0.00157 -0.01736 -0.01748  0.03350  0.02166
                  y   0.09734  0.00461 -0.04930 -0.05031 -0.15642 -0.14322
                  z  -0.41025 -0.01680  0.20549  0.21653 -0.02950 -0.03004
 17   c           x  -0.00050  0.00018  0.00342  0.01917 -0.03402 -0.03582
                  y  -0.00056 -0.00068  0.01182  0.05531  0.21534  0.19828
                  z   0.00285  0.00079 -0.04788 -0.23307  0.04680  0.04325
 18   h           x  -0.00011 -0.00015  0.00728  0.03940 -0.01361 -0.00471
                  y  -0.00066 -0.00080  0.02356  0.11500  0.21502  0.19997
                  z   0.00324  0.00178 -0.10019 -0.49599  0.05687  0.04872
 19   c           x  -0.01527 -0.00012  0.00346 -0.00957 -0.14915 -0.14345
                  y  -0.04468 -0.00178  0.01210 -0.02987 -0.01064 -0.01648
                  z   0.18871  0.00758 -0.05027  0.12800 -0.01538 -0.01642
 20   h           x  -0.03140 -0.00123  0.00731 -0.02131 -0.02903 -0.03628
                  y  -0.09645 -0.00273  0.02355 -0.06874 -0.16921 -0.15815
                  z   0.40556  0.01533 -0.09980  0.29022 -0.03716 -0.03497
 21   c           x   0.01533  0.00063 -0.00752 -0.00792 -0.12066 -0.10414
                  y   0.04537  0.00166 -0.02206 -0.02336 -0.03825 -0.04074
                  z  -0.19116 -0.00763  0.09468  0.10018 -0.01829 -0.01804
 22   h           x   0.03311  0.00119 -0.01629 -0.01764 -0.03446 -0.02235
                  y   0.09809  0.00341 -0.04820 -0.05206  0.15443  0.14216
                  z  -0.41217 -0.01689  0.20612  0.21790  0.03861  0.03600
 23   c           x  -0.00012 -0.00029  0.00397  0.01808  0.03411  0.03579
                  y  -0.00069  0.00002  0.01139  0.05561 -0.21364 -0.19707
                  z   0.00227  0.00022 -0.04629 -0.23000 -0.04885 -0.04415
 24   h           x  -0.00024 -0.00037  0.00814  0.03888  0.01340  0.00559
                  y  -0.00129  0.00003  0.02371  0.11749 -0.21521 -0.19957
                  z   0.00483  0.00010 -0.09813 -0.49071 -0.04791 -0.04463

reduced mass(g/mol)     2.952    2.887    2.912    2.947    6.006    6.006


       mode              19       20       21       22       23       24

     frequency         611.60   612.42   689.04   690.35   715.75   718.50

     symmetry            a        a        a        a        a        a   

        IR               YES      YES      YES      YES      YES      YES
|dDIP/dQ|   (a.u.)     0.0002   0.0001   0.0055   0.0097   0.0005   0.0001
intensity (km/mol)       0.08     0.01    53.58   168.44     0.39     0.02
intensity (  %   )       0.05     0.01    31.81   100.00     0.23     0.01
 
       RAMAN             YES      YES      YES      YES      YES      YES
 
  1   h           x   0.19616  0.03922 -0.04660  0.04501  0.00903 -0.05491
                  y  -0.06058 -0.01260 -0.28168  0.27358  0.05187 -0.33480
                  z  -0.09496 -0.01137  0.06977 -0.06808 -0.01244  0.08132
  2   c           x  -0.06847 -0.01673  0.00391 -0.00393  0.00205 -0.03190
                  y  -0.03014 -0.00367  0.02217 -0.02490  0.01263 -0.19539
                  z  -0.17263 -0.02847 -0.00560  0.00624 -0.00286  0.04656
  3   c           x  -0.28395 -0.05499  0.00443 -0.00310 -0.00260  0.03188
                  y   0.06416  0.01427  0.02417 -0.02309 -0.01758  0.19654
                  z   0.06727  0.01605 -0.00567  0.00573  0.00449 -0.04707
  4   h           x  -0.28289 -0.05787 -0.04577  0.04731 -0.00012  0.05649
                  y   0.05722  0.00668 -0.27591  0.27589 -0.00115  0.34163
                  z   0.07307  0.01095  0.06622 -0.06507  0.00017 -0.08106
  5   c           x   0.02748  0.01143  0.00370 -0.00380  0.00238 -0.03228
                  y   0.03776  0.00807  0.02305 -0.02310  0.01335 -0.19810
                  z   0.17773  0.03870 -0.00528  0.00567 -0.00281  0.04716
  6   h           x   0.21994  0.04620 -0.04773  0.04345  0.00918 -0.05469
                  y  -0.04527 -0.01140 -0.28521  0.26720  0.05583 -0.33575
                  z  -0.01086  0.00479  0.06790 -0.06250 -0.01267  0.07928
  7   c           x   0.06827  0.01656  0.00427 -0.00331 -0.00282  0.03245
                  y   0.02930  0.00383  0.02543 -0.02105 -0.01816  0.19729
                  z   0.17267  0.02847 -0.00614  0.00459  0.00439 -0.04702
  8   h           x  -0.19854 -0.04074 -0.04522  0.04404  0.00002  0.05679
                  y   0.04844  0.00534 -0.28023  0.26657  0.00071  0.34620
                  z   0.09770  0.01314  0.06570 -0.06319 -0.00023 -0.08197
  9   c           x   0.28415  0.05555  0.00326 -0.00438  0.00214 -0.03272
                  y  -0.06172 -0.01230  0.02237 -0.02330  0.01341 -0.19852
                  z  -0.06756 -0.01664 -0.00496  0.00599 -0.00300  0.04750
 10   h           x   0.28110  0.05716 -0.04622  0.04286  0.00909 -0.05387
                  y  -0.06757 -0.01222 -0.28422  0.26675  0.05540 -0.32896
                  z  -0.06963 -0.00890  0.06838 -0.06221 -0.01254  0.07805
 11   c           x  -0.02717 -0.01139  0.00375 -0.00416 -0.00350  0.03227
                  y  -0.03858 -0.00781  0.02503 -0.02288 -0.01851  0.19589
                  z  -0.17816 -0.03865 -0.00598  0.00573  0.00408 -0.04692
 12   h           x  -0.22103 -0.04709 -0.04459  0.04359 -0.00075  0.05473
                  y   0.03401  0.00427 -0.27839  0.27521 -0.00085  0.33919
                  z   0.01244 -0.00349  0.06752 -0.06688 -0.00008 -0.08143
 13   h           x  -0.03211  0.31225  0.02242  0.02336  0.02584  0.00105
                  y   0.12816  0.07934  0.06562  0.07011  0.07597  0.00292
                  z   0.02953  0.04482 -0.28295 -0.28364 -0.31614 -0.01053
 14   c           x   0.09051  0.19824 -0.00280 -0.00063  0.01763  0.00162
                  y  -0.03353  0.23309 -0.00564 -0.00576  0.05088  0.00418
                  z  -0.00027  0.07171  0.02063  0.02870 -0.21179 -0.01637
 15   c           x   0.15008 -0.25171 -0.00249 -0.00046 -0.01661 -0.00126
                  y  -0.00157  0.18959 -0.00694 -0.00420 -0.04911 -0.00317
                  z   0.01112  0.02423  0.02602  0.02196  0.20874  0.01419
 16   h           x   0.08911 -0.32463  0.02189  0.02474 -0.02817 -0.00330
                  y  -0.13657  0.02208  0.06353  0.06857 -0.08211 -0.00891
                  z  -0.02475 -0.02100 -0.26951 -0.28832  0.34454  0.03533
 17   c           x  -0.00156 -0.14904 -0.00122 -0.00184  0.01662  0.00113
                  y   0.18712 -0.01630 -0.00466 -0.00314  0.04998  0.00390
                  z   0.04383 -0.01595  0.01789  0.02050 -0.20880 -0.01579
 18   h           x  -0.05471  0.22476  0.02243  0.01920  0.02758  0.00115
                  y   0.18153  0.01924  0.06212  0.06075  0.08373  0.00410
                  z   0.03775  0.02263 -0.27013 -0.26160 -0.35821 -0.01687
 19   c           x  -0.09073 -0.19801 -0.00125 -0.00319 -0.01686 -0.00134
                  y   0.03392 -0.23381 -0.00587 -0.00503 -0.04916 -0.00371
                  z   0.00108 -0.07065  0.02525  0.02122  0.20776  0.01526
 20   h           x   0.03324 -0.31105  0.02144  0.02027 -0.02735 -0.00271
                  y  -0.12808 -0.08141  0.06252  0.06822 -0.08412 -0.00789
                  z  -0.02907 -0.04602 -0.26595 -0.28810  0.35299  0.03314
 21   c           x  -0.14981  0.25182 -0.00117 -0.00335  0.01670  0.00134
                  y   0.00205 -0.18947 -0.00481 -0.00700  0.05013  0.00369
                  z  -0.01114 -0.02450  0.02100  0.02827 -0.21147 -0.01649
 22   h           x  -0.08920  0.32505  0.02236  0.02251  0.02575  0.00113
                  y   0.13684 -0.02078  0.06560  0.06899  0.07676  0.00300
                  z   0.02510  0.02048 -0.28142 -0.28360 -0.32135 -0.01259
 23   c           x   0.00162  0.14883 -0.00239 -0.00139 -0.01726 -0.00107
                  y  -0.18610  0.01633 -0.00524 -0.00697 -0.05134 -0.00363
                  z  -0.04454  0.01558  0.02688  0.02101  0.21437  0.01425
 24   h           x   0.05371 -0.22979  0.02259  0.02350 -0.02464 -0.00311
                  y  -0.18009 -0.02024  0.06663  0.06899 -0.07152 -0.00837
                  z  -0.03913 -0.02467 -0.27522 -0.29953  0.29907  0.03394

reduced mass(g/mol)     6.007    6.019    1.086    1.086    4.136    3.801


       mode              25       26       27       28       29       30

     frequency         863.03   865.08   867.38   868.49   960.45   968.77

     symmetry            a        a        a        a        a        a   

        IR               YES      YES      YES      YES      YES      YES
|dDIP/dQ|   (a.u.)     0.0001   0.0005   0.0007   0.0007   0.0002   0.0003
intensity (km/mol)       0.04     0.43     0.77     0.79     0.09     0.19
intensity (  %   )       0.02     0.26     0.46     0.47     0.06     0.11
 
       RAMAN             YES      YES      YES      YES      YES      YES
 
  1   h           x  -0.00849 -0.05141 -0.02168  0.06989 -0.00228  0.00049
                  y  -0.06363 -0.30589 -0.12290  0.42695 -0.00569  0.01342
                  z   0.01664  0.07680  0.02984 -0.10553  0.00017 -0.00173
  2   c           x   0.00168  0.00722  0.00269 -0.01123  0.00017 -0.00107
                  y   0.00953  0.04659  0.01859 -0.06471  0.00075 -0.00179
                  z  -0.00207 -0.01071 -0.00503  0.01658 -0.00102  0.00218
  3   c           x   0.00306  0.00187 -0.00938 -0.00891 -0.00029 -0.00141
                  y   0.02018  0.01738 -0.05690 -0.05202 -0.00481  0.00086
                  z  -0.00481 -0.00443  0.01386  0.01237  0.00118 -0.00027
  4   h           x  -0.02276 -0.02063  0.06402  0.05879  0.00494 -0.00259
                  y  -0.13012 -0.11460  0.37973  0.35183  0.02327 -0.00423
                  z   0.02974  0.02599 -0.08986 -0.08393 -0.00455 -0.00022
  5   c           x   0.00141 -0.00483 -0.01223  0.00166  0.00119  0.00002
                  y   0.00793 -0.02999 -0.07602  0.00993  0.00620  0.00203
                  z  -0.00200  0.00644  0.01825 -0.00264 -0.00091 -0.00141
  6   h           x  -0.00871  0.03385  0.08407 -0.01157 -0.00597 -0.00157
                  y  -0.05558  0.19726  0.50617 -0.07276 -0.03239 -0.01325
                  z   0.01277 -0.04819 -0.11954  0.01665  0.00887  0.00128
  7   c           x  -0.00146 -0.00790 -0.00314  0.01050 -0.00025 -0.00039
                  y  -0.00949 -0.04640 -0.01810  0.06503 -0.00133 -0.00206
                  z   0.00244  0.01101  0.00413 -0.01545  0.00017 -0.00033
  8   h           x   0.00992  0.04961  0.01919 -0.07118  0.00174  0.00091
                  y   0.06438  0.30880  0.12235 -0.43208  0.00773  0.00910
                  z  -0.01511 -0.07244 -0.02915  0.10153 -0.00186 -0.00300
  9   c           x  -0.00283 -0.00215  0.00913  0.00943 -0.00123  0.00127
                  y  -0.01852 -0.01679  0.05650  0.05426 -0.00508  0.00051
                  z   0.00441  0.00327 -0.01314 -0.01346  0.00141 -0.00112
 10   h           x   0.02059  0.01795 -0.06070 -0.05880  0.00409 -0.00031
                  y   0.12516  0.11027 -0.37600 -0.36619  0.02810 -0.00636
                  z  -0.02906 -0.02857  0.09044  0.08599 -0.00675 -0.00158
 11   c           x  -0.00165  0.00601  0.01186 -0.00153  0.00043  0.00182
[...]
                  z  -0.07058 -0.01909 -0.01522 -0.00017 -0.02298 -0.01931
 22   h           x   0.09864  0.02291  0.16113  0.00177  0.07246  0.15535
                  y   0.22059  0.04988  0.36182  0.00394  0.36160  0.22831
                  z   0.05929  0.01366  0.09874  0.00111  0.09142  0.06644
 23   c           x   0.29326  0.08075 -0.05782 -0.00068  0.03097 -0.09480
                  y   0.02786  0.00730 -0.00531 -0.00008  0.08909  0.01129
                  z   0.03024  0.00826 -0.00590 -0.00007  0.02360 -0.00495
 24   h           x  -0.27638 -0.08292  0.40051  0.00451 -0.16231  0.33817
                  y  -0.02756 -0.00871  0.03930  0.00042  0.08916  0.05787
                  z  -0.02886 -0.00854  0.04145  0.00047  0.00824  0.04107

reduced mass(g/mol)     7.116    7.126    1.248    1.248    2.004    1.993


       mode              55       56       57       58       59       60

     frequency        1515.93  1516.89  1634.73  1634.82  1634.98  1635.35

     symmetry            a        a        a        a        a        a   

        IR               YES      YES      YES      YES      YES      YES
|dDIP/dQ|   (a.u.)     0.0020   0.0008   0.0002   0.0002   0.0006   0.0004
intensity (km/mol)       6.86     1.14     0.06     0.11     0.62     0.30
intensity (  %   )       4.08     0.68     0.03     0.06     0.37     0.18
 
       RAMAN             YES      YES      YES      YES      YES      YES
 
  1   h           x  -0.11853  0.34854  0.06977  0.33379 -0.12664 -0.18515
                  y   0.03780 -0.03146  0.02946 -0.04691  0.00385  0.01744
                  z   0.07548  0.10773  0.17008  0.03091 -0.07230 -0.05187
  2   c           x   0.00340 -0.09648 -0.11431 -0.23272  0.11245  0.14505
                  y   0.02143  0.01091  0.04339  0.00818 -0.01866 -0.01356
                  z   0.09056 -0.02075  0.10256 -0.12423 -0.00058  0.04220
  3   c           x  -0.08587  0.03195  0.03799  0.13340 -0.05420 -0.07720
                  y  -0.00746 -0.02142 -0.05991  0.02776  0.01396 -0.00205
                  z  -0.09033 -0.06778 -0.22491  0.20739  0.02120 -0.06055
  4   h           x   0.04117  0.11709  0.18005 -0.00542 -0.06563 -0.03478
                  y   0.08853  0.02541  0.02611 -0.07165  0.01175  0.03331
                  z   0.40049  0.19091  0.23416 -0.30580  0.00421  0.10931
  5   c           x   0.11583  0.01303 -0.17977 -0.10453  0.09718  0.09387
                  y  -0.03597  0.01382  0.08266 -0.00172 -0.02991 -0.01700
                  z  -0.07101  0.06737  0.22334 -0.07771 -0.05926 -0.00656
  6   h           x  -0.32073  0.15065  0.28846 -0.08301 -0.08160 -0.01702
                  y   0.13969 -0.03646 -0.10218 -0.01317  0.04110  0.02983
                  z   0.36487 -0.04950 -0.22901 -0.11811  0.11908  0.11058
  7   c           x   0.00336 -0.09653  0.11235  0.22926 -0.10990 -0.14610
                  y   0.02109  0.01096 -0.04296 -0.00825  0.01816  0.01382
                  z   0.09104 -0.02059 -0.10154  0.12247  0.00026 -0.04267
  8   h           x  -0.11844  0.34614 -0.06660 -0.32647  0.12214  0.18897
                  y   0.03726 -0.03150 -0.02771  0.04582 -0.00391 -0.01872
                  z   0.07613  0.10735 -0.16726 -0.02972  0.06980  0.05301
  9   c           x  -0.08568  0.03201 -0.03793 -0.13147  0.05381  0.07795
                  y  -0.00788 -0.02125  0.05971 -0.02762 -0.01369  0.00151
                  z  -0.09173 -0.06758  0.22284 -0.20720 -0.01972  0.05942
 10   h           x   0.04210  0.11676 -0.17812  0.00687  0.06366  0.03605
                  y   0.08895  0.02587 -0.02670  0.07076 -0.01188 -0.03300
                  z   0.40216  0.19090 -0.22959  0.30586 -0.00845 -0.10811
 11   c           x   0.11558  0.01276  0.18123  0.10499 -0.09880 -0.09400
                  y  -0.03560  0.01423 -0.08317  0.00181  0.03019  0.01745
                  z  -0.06978  0.06759 -0.22313  0.07930  0.05880  0.00801
 12   h           x  -0.31922  0.15146 -0.28877  0.08720  0.08105  0.01887
                  y   0.13920 -0.03664  0.10275  0.01367 -0.04189 -0.03057
                  z   0.36441 -0.05035  0.23108  0.11640 -0.12077 -0.11136
 13   h           x   0.02175 -0.13228  0.09630  0.08387  0.25124  0.01483
                  y  -0.04653  0.04767 -0.06011  0.01891 -0.27769  0.19555
                  z  -0.00925  0.00061 -0.00638  0.01129 -0.04564  0.04770
 14   c           x  -0.01535 -0.03290 -0.01914  0.04226 -0.15037  0.16639
                  y   0.00591 -0.06117  0.08663  0.06188  0.24967 -0.02536
                  z   0.00012 -0.01715  0.01907  0.01814  0.04718  0.00743
 15   c           x   0.01038 -0.01566 -0.03211 -0.08366  0.01023 -0.16586
                  y   0.01610  0.08474 -0.10591 -0.12415 -0.22307 -0.10830
                  z   0.00465  0.01874 -0.02768 -0.03623 -0.05199 -0.03916
 16   h           x  -0.02502 -0.15906  0.07101  0.05020  0.20476 -0.02308
                  y  -0.06505 -0.21096  0.12172  0.18236  0.18837  0.23869
                  z  -0.01727 -0.06299  0.03424  0.04754  0.06095  0.05499
 17   c           x   0.00717  0.10355  0.02405  0.11875 -0.10170  0.28637
                  y  -0.01165 -0.00404  0.05293  0.05731  0.11928  0.04189
                  z  -0.00191  0.00746  0.01416  0.02308  0.01997  0.03284
 18   h           x  -0.01860 -0.39117 -0.04346 -0.16373  0.09256 -0.38047
                  y  -0.01512 -0.05426  0.05147  0.03654  0.15408 -0.02004
                  z  -0.00756 -0.04472  0.01153 -0.00429  0.04361 -0.03445
 19   c           x  -0.01555 -0.03008  0.01908 -0.04247  0.15036 -0.16654
                  y   0.00543 -0.06272 -0.08648 -0.06192 -0.25086  0.02341
                  z   0.00010 -0.01721 -0.01890 -0.01796 -0.04740 -0.00759
 20   h           x   0.02040 -0.13262 -0.09507 -0.08418 -0.25164 -0.02025
                  y  -0.04485  0.04963  0.05723 -0.01877  0.27242 -0.18848
                  z  -0.00973  0.00197  0.00573 -0.01138  0.04544 -0.04673
 21   c           x   0.01052 -0.01827  0.03215  0.08310 -0.01012  0.16378
                  y   0.01671  0.08231  0.10587  0.12358  0.22415  0.10835
                  z   0.00477  0.01798  0.02774  0.03593  0.05240  0.03880
 22   h           x  -0.02532 -0.15826 -0.07077 -0.05005 -0.20610  0.02091
                  y  -0.06549 -0.20576 -0.12244 -0.18267 -0.19160 -0.23955
                  z  -0.01733 -0.06140 -0.03461 -0.04734 -0.06198 -0.05495
 23   c           x   0.00660  0.10664 -0.02428 -0.11798  0.10193 -0.28217
                  y  -0.01143 -0.00341 -0.05264 -0.05690 -0.11867 -0.04059
                  z  -0.00218  0.00779 -0.01450 -0.02303 -0.02007 -0.03234
 24   h           x  -0.01847 -0.37677  0.04542  0.16374 -0.09421  0.36274
                  y  -0.01648 -0.05344 -0.05105 -0.03422 -0.15108  0.02082
                  z  -0.00538 -0.04301 -0.00848  0.00516 -0.04328  0.03405

reduced mass(g/mol)     1.996    1.991    5.285    5.286    5.309    5.284


       mode              61       62       63       64       65       66

     frequency        3153.92  3156.87  3162.22  3166.10  3167.67  3168.63

     symmetry            a        a        a        a        a        a   

        IR               YES      YES      YES      YES      YES      YES
|dDIP/dQ|   (a.u.)     0.0010   0.0002   0.0006   0.0003   0.0006   0.0030
intensity (km/mol)       1.77     0.07     0.70     0.21     0.55    15.60
intensity (  %   )       1.05     0.04     0.42     0.13     0.33     9.26
 
       RAMAN             YES      YES      YES      YES      YES      YES
 
  1   h           x  -0.00140 -0.07968  0.00009 -0.02362  0.13202  0.01418
                  y   0.00160  0.08988 -0.00022  0.02465 -0.14949 -0.01590
                  z   0.00542  0.30883 -0.00071  0.08351 -0.51390 -0.05479
  2   c           x   0.00014  0.00665  0.00008  0.00342 -0.01094 -0.00121
                  y  -0.00014 -0.00740  0.00001 -0.00221  0.01260  0.00134
                  z  -0.00045 -0.02545  0.00010 -0.00663  0.04359  0.00463
  3   c           x  -0.00068 -0.03251 -0.00143 -0.04367  0.02048  0.00381
                  y   0.00016  0.00727  0.00035  0.00968 -0.00500 -0.00087
                  z   0.00016  0.00765  0.00034  0.00990 -0.00657 -0.00104
  4   h           x   0.00802  0.38951  0.01609  0.51088 -0.24369 -0.04515
                  y  -0.00181 -0.08784 -0.00374 -0.11512  0.05547  0.01018
                  z  -0.00197 -0.09419 -0.00392 -0.12309  0.06112  0.01104
  5   c           x   0.00042  0.02651  0.00008  0.02721  0.02006  0.00023
                  y   0.00002  0.00187 -0.00000  0.00152  0.00191  0.00006
                  z   0.00041  0.02635 -0.00002  0.02546  0.02205  0.00049
  6   h           x  -0.00505 -0.31803 -0.00074 -0.31075 -0.24559 -0.00409
                  y  -0.00034 -0.02228 -0.00011 -0.02127 -0.01784 -0.00033
                  z  -0.00501 -0.31636 -0.00058 -0.30711 -0.24706 -0.00441
  7   c           x   0.00002  0.00883 -0.00014 -0.00431  0.01070  0.00096
                  y  -0.00005 -0.00951  0.00016  0.00291 -0.01191 -0.00101
                  z  -0.00011 -0.03418  0.00056  0.00939 -0.04315 -0.00342
  8   h           x  -0.00032 -0.10634  0.00170  0.03235 -0.12981 -0.01052
                  y   0.00039  0.11416 -0.00184 -0.03249  0.13984  0.01131
                  z   0.00126  0.41123 -0.00660 -0.11567  0.50429  0.04028
  9   c           x  -0.00031 -0.03410  0.00079  0.04583 -0.00954 -0.00368
                  y   0.00005  0.00753 -0.00016 -0.00997  0.00254  0.00080
                  z   0.00009  0.00837 -0.00018 -0.01068  0.00416  0.00106
 10   h           x   0.00381  0.40927 -0.00967 -0.53646  0.11687  0.04318
                  y  -0.00083 -0.08999  0.00218  0.11775 -0.02625 -0.00947
                  z  -0.00094 -0.09959  0.00233  0.12985 -0.03078 -0.01072
 11   c           x   0.00018  0.02170 -0.00098 -0.02538 -0.02538 -0.00134
                  y   0.00001  0.00167 -0.00008 -0.00166 -0.00241 -0.00020
                  z   0.00020  0.02121 -0.00097 -0.02354 -0.02669 -0.00155
 12   h           x  -0.00233 -0.25990  0.01138  0.29061  0.30614  0.01662
                  y  -0.00019 -0.02093  0.00101  0.02307  0.02522  0.00147
                  z  -0.00231 -0.25711  0.01124  0.28597  0.30523  0.01678
 13   h           x  -0.40532  0.00779  0.36470 -0.00092 -0.01515  0.17450
                  y  -0.28790  0.00554  0.25719 -0.00043 -0.01112  0.12822
                  z  -0.10115  0.00194  0.09058 -0.00019 -0.00387  0.04459
 14   c           x   0.03376 -0.00065 -0.03168  0.00015  0.00119 -0.01374
                  y   0.02409 -0.00047 -0.02107 -0.00005  0.00111 -0.01277
                  z   0.00845 -0.00016 -0.00757  0.00000  0.00036 -0.00414
 15   c           x  -0.02870  0.00046  0.04246 -0.00235  0.00323 -0.03745
                  y   0.01192 -0.00018 -0.01779  0.00104 -0.00148  0.01717
                  z   0.00046 -0.00001 -0.00073  0.00006 -0.00008  0.00099
 16   h           x   0.34123 -0.00538 -0.49555  0.02759 -0.03763  0.43485
                  y  -0.14892  0.00237  0.21654 -0.01213  0.01663 -0.19159
                  z  -0.00724  0.00015  0.01060 -0.00069  0.00077 -0.00968
 17   c           x   0.00159 -0.00001 -0.00188  0.00017 -0.00026  0.00333
                  y  -0.01149 -0.00005  0.00364 -0.00148  0.00210 -0.02682
                  z  -0.00253 -0.00001  0.00069 -0.00033  0.00047 -0.00595
 18   h           x  -0.01755 -0.00003  0.00738 -0.00195  0.00309 -0.03905
                  y   0.14695  0.00051 -0.04650  0.01823 -0.02620  0.33027
                  z   0.03224  0.00008 -0.01006  0.00403 -0.00585  0.07253
 19   c           x   0.01871  0.00027  0.02670  0.00154 -0.00313  0.03579
                  y   0.01258  0.00021  0.01780  0.00118 -0.00225  0.02553
                  z   0.00442  0.00006  0.00627  0.00038 -0.00077  0.00880
 20   h           x  -0.22277 -0.00319 -0.31044 -0.01814  0.03676 -0.41806
                  y  -0.15839 -0.00234 -0.22074 -0.01315  0.02648 -0.29883
                  z  -0.05446 -0.00060 -0.07588 -0.00416  0.00906 -0.10262
 21   c           x  -0.03615  0.00025 -0.04465  0.00133  0.00024 -0.00614
                  y   0.01613 -0.00013  0.01917 -0.00072  0.00011  0.00015
                  z   0.00094 -0.00001  0.00098 -0.00007  0.00004 -0.00045
 22   h           x   0.43378 -0.00307  0.52239 -0.01593 -0.00193  0.05997
                  y  -0.19020  0.00137 -0.22825  0.00715  0.00055 -0.02275
                  z  -0.01044  0.00008 -0.01239  0.00043 -0.00001 -0.00057
 23   c           x   0.00506 -0.00008  0.00301 -0.00037  0.00047 -0.00497
                  y  -0.04198  0.00072 -0.00952  0.00272 -0.00426  0.04690
                  z  -0.00956  0.00017 -0.00202  0.00062 -0.00098  0.01074
 24   h           x  -0.06098  0.00103 -0.01617  0.00389 -0.00589  0.06447
                  y   0.50484 -0.00852  0.11380 -0.03166  0.04929 -0.54192
                  z   0.11495 -0.00194  0.02572 -0.00720  0.01124 -0.12355

reduced mass(g/mol)     1.084    1.084    1.087    1.087    1.087    1.088


       mode              67       68       69       70       71       72

     frequency        3179.29  3182.38  3183.62  3184.53  3193.09  3196.45

     symmetry            a        a        a        a        a        a   

        IR               YES      YES      YES      YES      YES      YES
|dDIP/dQ|   (a.u.)     0.0044   0.0047   0.0041   0.0035   0.0006   0.0009
intensity (km/mol)      34.12    38.91    29.43    22.29     0.58     1.30
intensity (  %   )      20.26    23.10    17.47    13.23     0.35     0.77
 
       RAMAN             YES      YES      YES      YES      YES      YES
 
  1   h           x   0.00435 -0.02246  0.13387 -0.02133 -0.11604  0.01927
                  y  -0.00535  0.03005 -0.15047  0.02432  0.13096 -0.02152
                  z  -0.01855  0.10607 -0.51669  0.08322  0.44994 -0.07451
  2   c           x  -0.00008 -0.00080 -0.01231  0.00187  0.01065 -0.00177
                  y   0.00044 -0.00238  0.01333 -0.00217 -0.01187  0.00194
                  z   0.00172 -0.01016  0.04563 -0.00744 -0.04086  0.00675
  3   c           x  -0.00426  0.04494 -0.01125  0.00406  0.03429 -0.00619
                  y   0.00101 -0.01039  0.00178 -0.00083 -0.00763  0.00135
                  z   0.00113 -0.01205 -0.00044 -0.00058 -0.00791  0.00150
  4   h           x   0.04748 -0.50760  0.11765 -0.04408 -0.37312  0.06784
                  y  -0.01089  0.11499 -0.02551  0.00991  0.08415 -0.01519
                  z  -0.01171  0.12480 -0.02407  0.01006  0.08995 -0.01649
  5   c           x  -0.00281  0.02606  0.02661 -0.00226  0.02268 -0.00494
                  y  -0.00026  0.00249  0.00108 -0.00004  0.00166 -0.00036
                  z  -0.00311  0.02872  0.02317 -0.00161  0.02286 -0.00470
  6   h           x   0.03310 -0.30629 -0.28134  0.02227 -0.24883  0.05273
                  y   0.00234 -0.02239 -0.01854  0.00149 -0.01746  0.00388
                  z   0.03339 -0.30874 -0.27517  0.02125 -0.24799  0.05216
  7   c           x   0.00008 -0.00142 -0.01319  0.00153 -0.00777  0.00173
                  y   0.00024 -0.00147  0.01371 -0.00175  0.00839 -0.00196
                  z   0.00110 -0.00724  0.04907 -0.00613  0.03027 -0.00683
  8   h           x   0.00243 -0.01409  0.14326 -0.01763  0.08549 -0.01903
                  y  -0.00304  0.01942 -0.15305  0.01916 -0.09177  0.02073
                  z  -0.01136  0.07278 -0.55120  0.06851 -0.33091  0.07381
  9   c           x  -0.00514  0.04297 -0.02237  0.00378 -0.03167  0.00690
                  y   0.00115 -0.00976  0.00419 -0.00080  0.00703 -0.00161
                  z   0.00136 -0.01174  0.00242 -0.00049  0.00803 -0.00155
 10   h           x   0.05793 -0.48543  0.24236 -0.04134  0.34632 -0.07459
                  y  -0.01267  0.10708 -0.05219  0.00911 -0.07614  0.01664
                  z  -0.01424  0.11986 -0.05461  0.00946 -0.08466  0.01802
 11   c           x  -0.00264  0.02834  0.02011 -0.00231 -0.02819  0.00520
                  y  -0.00031  0.00296  0.00074 -0.00008 -0.00215  0.00035
                  z  -0.00295  0.03090  0.01635 -0.00165 -0.02745  0.00523
 12   h           x   0.03130 -0.33337 -0.20810  0.02240  0.30637 -0.05734
                  y   0.00277 -0.02796 -0.01564  0.00174  0.02470 -0.00444
                  z   0.03146 -0.33437 -0.20115  0.02124  0.30290 -0.05705
 13   h           x  -0.39287 -0.04791  0.04872  0.36035 -0.03172 -0.12248
                  y  -0.28149 -0.03416  0.03412  0.25269 -0.02268 -0.08835
                  z  -0.09863 -0.01198  0.01207  0.08917 -0.00796 -0.03090
 14   c           x   0.03436  0.00426 -0.00453 -0.03349  0.00289  0.01106
                  y   0.02606  0.00309 -0.00288 -0.02147  0.00222  0.00891
                  z   0.00897  0.00108 -0.00105 -0.00780  0.00077  0.00302
 15   c           x   0.03780  0.00418 -0.00035 -0.00691  0.00560  0.02686
                  y  -0.01836 -0.00209  0.00057  0.00576 -0.00208 -0.00962
                  z  -0.00125 -0.00016  0.00010  0.00080 -0.00003 -0.00008
 16   h           x  -0.43017 -0.04799  0.00537  0.08645 -0.05934 -0.28095
                  y   0.19155  0.02126 -0.00292 -0.04168  0.02563  0.12067
                  z   0.01005  0.00118 -0.00015 -0.00281  0.00114  0.00545
 17   c           x  -0.00277 -0.00046  0.00065  0.00363  0.00156  0.00848
                  y  -0.00402  0.00086 -0.00545 -0.03226 -0.01291 -0.07090
                  z  -0.00116  0.00016 -0.00123 -0.00719 -0.00289 -0.01576
 18   h           x  -0.00041  0.00185 -0.00751 -0.04405 -0.01736 -0.09422
                  y   0.04536 -0.01003  0.06291  0.37659  0.14345  0.79697
                  z   0.01037 -0.00214  0.01414  0.08278  0.03208  0.17533
 19   c           x   0.03938  0.00463  0.00021  0.01065 -0.00553 -0.02662
                  y   0.03003  0.00334  0.00060  0.01085 -0.00356 -0.01670
                  z   0.01014  0.00116  0.00014  0.00339 -0.00126 -0.00600
 20   h           x  -0.45535 -0.05269 -0.00446 -0.13521  0.05852  0.27719
                  y  -0.32869 -0.03749 -0.00379 -0.10122  0.04136  0.19539
                  z  -0.11249 -0.01306 -0.00104 -0.03434  0.01417  0.06732
 21   c           x   0.03387  0.00152  0.00489  0.03991 -0.00354 -0.01373
                  y  -0.01699 -0.00099 -0.00184 -0.01569  0.00172  0.00707
                  z  -0.00132 -0.00011 -0.00005 -0.00053  0.00013  0.00059
 22   h           x  -0.38723 -0.01832 -0.05317 -0.43563  0.03848  0.14957
                  y   0.17261  0.00854  0.02284  0.18816 -0.01701 -0.06682
                  z   0.01004  0.00056  0.00121  0.00985 -0.00097 -0.00392
 23   c           x  -0.00393 -0.00064  0.00087  0.00618 -0.00039 -0.00138
                  y   0.00634  0.00279 -0.00715 -0.05216  0.00336  0.01189
                  z   0.00119  0.00061 -0.00163 -0.01189  0.00077  0.00272
 24   h           x   0.01359  0.00418 -0.00961 -0.06963  0.00437  0.01537
                  y  -0.07432 -0.03148  0.07945  0.57803 -0.03639 -0.12804
                  z  -0.01657 -0.00714  0.01811  0.13165 -0.00830 -0.02920

reduced mass(g/mol)     1.095    1.095    1.095    1.096    1.099    1.097
 

         **************************************************************
         *                                                            *
         *  zero point VIBRATIONAL energy  :      0.2006558  Hartree  *
         *    SCF-energy                   :   -464.7295646           *
         *    SCF + E(vib0)                :   -464.5289088           *
         *                                                            *
         **************************************************************




 time elapsed for vibrational analysis     1.80 sec


    ------------------------------------------------------------------------
         total  cpu-time : 10 hours  7 minutes and 23 seconds
         total wall-time : 22 minutes and  0 seconds
    ------------------------------------------------------------------------

   ****  force : all done  ****


    2020-06-23 22:59:50.560 

