           Doing BLAS/Lapack in the master proc. with  8 CPUs.
           SMPCPUS    set: Shared-memory Parallelization with   8 CPUs.

           SMP Parallelization Reference:
           C. van Wullen, J. Comput. Chem. 32 (2011) 1195--1201

 force (c-12-33) : TURBOMOLE V7.2 ( 21454 ) 4 Oct 2017 at 12:48:15
 Copyright (C) 2017 TURBOMOLE GmbH, Karlsruhe


    2020-06-19 10:37:01.221 



                             T U R B O M O L E   

                          a o f o r c e - program

                        using direct algorithms for

                       SCF level calculations of
                         * harmonic force constants
                         * hyperpolarizabilities
                         * IR and RAMAN intensities
                         * VCD intensities

                       DFT level calculations of
                         * harmonic force constants
                         * IR intensities
                                                   
       Stephan Boecker, Peter Deglmann, Filipp Furche and Marco Haeser
                          Quantum Chemistry Group
                          Universitaet  Karlsruhe
                                   Germany

 
 
 
 
     References :
 
       RI-J implementation:
         Peter Deglmann, Klaus May, Filipp Furche, Reinhart Ahlrichs
                 Chem. Phys. Lett. 384:103 (2004)
 
       Efficiency, technical details:
         Peter Deglmann, Filipp Furche, Reinhart Ahlrichs
                 Chem. Phys. Lett. 362:511 (2002)
 
       Search of lowest eigenvalues by iterative diagonalization:
         Peter Deglmann, Filipp Furche
                 J. Chem. Phys. 117:9535 (2002)
 
       Vibrational circular dichroism implementation:
        Kevin Reiter, Michael Kuehn, Florian Weigend
                 J. Chem. Phys. 146:054102 (2017)  
 
 


              +--------------------------------------------------+
              | Atomic coordinate, charge and isotop information |
              +--------------------------------------------------+

                    atomic coordinates            atom    charge  isotop
          2.09427924   -5.07137161    3.74904921    h      1.000     0
          1.09186049   -4.90809617    1.97024085    c      6.000     0
         -1.53608150   -4.78163039    1.94709492    c      6.000     0
         -2.58060297   -4.84658574    3.70791286    h      1.000     0
         -2.82259421   -4.56009409   -0.33707464    c      6.000     0
         -4.86758095   -4.44891853   -0.35417762    h      1.000     0
         -1.48102376   -4.46679810   -2.59828534    c      6.000     0
         -2.48264666   -4.28626769   -4.37586838    h      1.000     0
          1.14690544   -4.59334457   -2.57521030    c      6.000     0
          2.19221427   -4.51175717   -4.33487788    h      1.000     0
          2.43355790   -4.81310117   -0.29088701    c      6.000     0
          4.47975949   -4.89902131   -0.27201963    h      1.000     0
          0.12029907    6.76771452    4.50270677    h      1.000     0
          0.15277428    5.85444026    2.66882065    c      6.000     0
          0.06890895    3.23023149    2.50137574    c      6.000     0
         -0.02915457    2.09444097    4.20391968    h      1.000     0
          0.11042626    2.05617675    0.14815186    c      6.000     0
          0.04495077    0.01626383    0.01932399    h      1.000     0
          0.23593275    3.51112363   -2.03935942    c      6.000     0
          0.26804815    2.59388878   -3.87128281    h      1.000     0
          0.31992509    6.13557915   -1.87593370    c      6.000     0
          0.41770188    7.26779618   -3.58087228    h      1.000     0
          0.27839706    7.30780423    0.47920149    c      6.000     0
          0.34374356    9.35152674    0.60805098    h      1.000     0
 
       center of nuclear mass  :   -0.00007122   -0.00195153   -0.00013134
       center of nuclear charge:   -0.00006019   -0.00164934   -0.00011101

              +--------------------------------------------------+
              |               basis set information              |
              +--------------------------------------------------+

              we will work with the 1s 3p 5d 7f 9g ... basis set
              ...i.e. with spherical basis functions...

   type   atoms  prim   cont   basis
   ---------------------------------------------------------------------------
    h       12      8      6   def2-TZVP   [3s1p|5s1p]
    c       12     46     31   def2-TZVP   [5s3p2d1f|11s6p2d1f]
   ---------------------------------------------------------------------------
   total:   24    648    444
   ---------------------------------------------------------------------------

   total number of primitive shells          :   26
   total number of contracted shells         :  180
   total number of cartesian basis functions :  504
   total number of SCF-basis functions       :  444

 
             FOUND RI-J FLAG !
 

 NOTE: THIS IS A PRELIMINARY IMPLEMENTATION. THE RI APPROXIMATION IS
       PRESENTLY USED FOR CPKS CONTRIBUTIONS TO THE HESSIAN ONLY! SEE
       MANUAL FOR FURTHER DETAILS.

  
 AUXILIARY BASIS SET information:

              we will work with the 1s 3p 5d 7f 9g ... basis set
              ...i.e. with spherical basis functions...

   type   atoms  prim   cont   basis
   ---------------------------------------------------------------------------
    h       12     16     11   def2-TZVP   [3s1p1d|5s2p1d]
    c       12     70     49   def2-TZVP   [6s4p3d1f1g|12s5p4d2f1g]
   ---------------------------------------------------------------------------
   total:   24   1032    720
   ---------------------------------------------------------------------------

   total number of primitive shells          :   32
   total number of contracted shells         :  240
   total number of cartesian basis functions :  876
   total number of SCF-basis functions       :  720


 symmetry group of the molecule :   c1 

 the group has the following generators :
   c1(z)

    1 symmetry operations found

 there are 1 real representations :   a   

 maximum number of shells which are related by symmetry :  1


 determining totally symmetric integral contributions 
    - equivalent to irreducible tensor elements - 
 which can be formed within each triple of representations :

             representation triple      contributions

              a     a     a               1

    mo occupation :
   irrep   mo's   occupied
    a      444       42
 
 number of basis functions   :                    444
 number of occupied orbitals :                     42
 
  MOs are in ASCII format !


 reading orbital data $scfmo  from file mos
 orbital characterization : scfconv=7
 time elapsed for calculating density matrices :   0.172 sec

 number of non-frozen orbitals          :   444
 number of non-frozen occupied orbitals :    42
 Blocking parameters 
 shells:
    index      start shell   last shell  start bf    last bf    #bf 
       1             1         180             1        504    504
  
           ----------------------
               RI - INFORMATION
           ----------------------

 biggest AO integral is expected to be     5.725698708

 Threshold for integral neglect (rithr2):   0.50E-11
 Threshold for integral neglect (rithr1):   0.50E-11

 Contributions to RI integral batches: 
  neglected integral batches:                  3115
  direct contribution:                            0
  memory contribution:                 13175
 Core memory available (ricore):             25000 MiB
 Core memory needed for (P|Q) and Cholesky:      4 MiB
 Core memory used for integrals:               688 MiB
 
 ****************************************
 Memory allocated for RIDFT: 692 MiB
 ****************************************
 
  
           ------------------
           density functional
           ------------------
 TPSS global hybrid functional
 exchange:    9/10 (LDA+TPSS) + 1/10 HF
 correlation: LDA (PW) + TPSS

 spherical integration : Lebedev's spherical grid
 spherical gridsize    :                     4
    i.e. gridpoints    :                   434
 value for diffuse not defined
 radial integration    : Chebyshev 2nd kind (scaling 3)
 radial gridsize       :                     6
 integration cells     :                    24
 partition function    : becke
 partition sharpness   :                     3
  
 
 Derivatives of quadrature weights will be included
 
          Overall gridpoints after grid construction =        230287
 Ordering of quadrature gridpoints disabled.
 
 
 
 
 OCCUPIED-OCCUPIED TENSOR SPACES :

          IRREP   tensor space dimension   number of roots

           a              1764                  66
 
 OCCUPIED-VIRTUAL TENSOR SPACES :

          IRREP   tensor space dimension   number of roots

           a             16884                  66
 
 
 
 
 CONSTRUCTING integral bounds

 setting up bound for integral derivative estimation

 increment for numerical differentiation : 0.00050000
 
 machine precision:   2.220446049250313E-016

 integral neglect threshold       :  0.10E-09
 integral storage threshold THIZE :  0.10E-04
 integral storage threshold THIME :         5

 
 
 
 PREPARING NUMERICAL INTEGRATION
 
 Remaining core memory for DFT =                 27580 MB
 
 Memory needed per atom    =                  2982 KiB
 
     i. e.                    24 atoms per loop

 Calculating ground state density on molecular grid

 Integral of ground state density: N =   83.99997659559821    


 
 
 CONSTRUCTING first deriv. of <mu|x,y,z|nu> -> Dip. deriv.
  dipole integral derivatives will be neglected if
  expon. factor <0.992063E-12
      ...terminated. cpu:       0.62       wall:       0.08
 
 
 
 
 CONSTRUCTING first deriv. of  <mu|nu>
                               <mu|h|nu>    -> RHS
              second deriv. of <mu|nu>      -> Hessian
                               <mu|h|nu>    -> Hessian
                               nucl. rep.   -> Hessian
     integrals are neglected if expon. factor <  9.920634920634920E-014
  _________________________________
 |                                 |
 |         DFTD3 V3.1 Rev 0        |
 | S.Grimme, University Bonn       |
 |         June 2014               |
 |   see standalone version        |
 |       dftd3 -h for options      |
 |_________________________________|
 
 Please cite DFT-D3 work done with this code as:
 S. Grimme, J. Antony, S. Ehrlich and H. Krieg,
 J. Chem. Phys, 132 (2010), 154104.
 If used with BJ-damping cite also
 S. Grimme, S. Ehrlich and L. Goerigk,
 J. Comput. Chem. 32 (2011), 1456-1465
 For DFT-D2 the reference is
 S. Grimme, J. Comput. Chem., 27 (2006), 1787-1799
 
      ...terminated. cpu:       8.91       wall:       4.01
 
 
 
 
 CONSTRUCTING second deriv. of 2e energy    -> Hessian
   treating Coulomb (and exchange) contribution
     integrals will be neglected if total contribution <  9.920634920634920E-010
      ...terminated. cpu:    2225.75       wall:     278.42
   treating exchange-correlation contribution
      ...terminated. cpu:    1274.60       wall:     159.32
 
 
 
 
 CONSTRUCTING S(i,j)xi
      ...terminated. cpu:       0.04       wall:       0.04
 
 
 
 
 CONSTRUCTING <i|x,y,z|j>*S(i,j)xi          -> Dip. deriv.
      ...terminated. cpu:       0.29       wall:       0.08
 
 
 
 
 CONSTRUCTING epsilon(i)*S(i,j)xi*S(i,j)chi -> Hessian
      ...terminated. cpu:       0.03       wall:       0.00
 
 
 
 
 CONSTRUCTING G(a,i)[S(k,l)xi]              -> RHS
              G(i,j)[S(k,l)xi]*S(i,j)chi    -> Hessian
 
         Maximum core memory set to                  28000 MB
         This corresponds to                 14302 vectors in CAO basis
      ...terminated. cpu:    7595.71       wall:     949.45
 
 
 
 
 CONSTRUCTING G(mu,nu)[D(kap,lam)]xi
 
          Maximum core memory set to                  28000 MB
          Atoms treated simultaneously :                    24
      ...terminated. cpu:    3573.20       wall:     446.27
 
 
 
 
 CONSTRUCTING F(a,i)xi                      -> RHS
              F(i,j)xi*S(i,j)chi            -> Hessian
 
        Maximum core memory set to                 28000 MB
        This corresponds to                 25460 vectors in CAO basis
      ...terminated. cpu:      10.10       wall:       2.35
 
 
 
 
 CONSTRUCTING epsilon(i)*S(a,i)xi           -> RHS
      ...terminated. cpu:       1.90       wall:       0.45
 
 
 
 
 SOLVING CPHF equations
 
 Residuum convergence criterium   :  1.000000000000000E-005
 
 Maximum number of Davidson iterations set to                    25


                       Nonorthonormal Krylov Space Iteration


 total number of roots to be determined:  66


 maximum core memory set to 28000 MB,
 corresponding to    14253 vectors in CAO basis


 maximum number of simultaneously treated vectors (including degeneracy):       66


 Iteration IRREP Converged      Max. Euclidean
                 roots          residual norm

    1       a        0        6.934217578715654D-02
 
    2       a        0        8.545499353749569D-03
 
    3       a        0        6.852773589926655D-04
 
    4       a       20        4.137676744067062D-05
 
    5       a       66        9.918880240115226D-06
 

 converged!

      ...terminated. cpu:   28817.13       wall:    3650.50
 
 
 
 
 CONSTRUCTING <a|x,y,z|i>*U(a,i)xi          -> Dip. deriv.
      ...terminated. cpu:       0.63       wall:       0.10
 
 
 
 
 CONSTRUCTING RHS(a,i)xi*U(a,i)chi          -> Hessian
      ...terminated. cpu:       0.23       wall:       0.03
 
 
 
 

            -----------------------
            permanent dipole moment
            -----------------------

                                   x                y                z
    electronic part       :   -0.0043738844    -0.0510105273    -0.0030302358
     nuclear   part       :   -0.0050563007    -0.1385448373    -0.0093245464
     total                :   -0.0094301850    -0.1895553646    -0.0123547822

 with reference to the point :   0.0000000        0.0000000        0.0000000
 (given in atomic units)
    | dipole |       :    0.4834222179  debye

   ***  dipole moment & cartesian dipole gradients written onto
        $dipole, $dipgrad,  file=<dipgrad>  ***

             -----------------------------------
             rotational and vibrational analysis
             -----------------------------------


            ==============================================================
            ATOMIC WEIGHTS (average over the natural occurance of isotops)
            ==============================================================
            ('*' denotes special isotop !)
              1     h                 1.00797
              2     c                12.01115
              3     c                12.01115
              4     h                 1.00797
              5     c                12.01115
              6     h                 1.00797
              7     c                12.01115
              8     h                 1.00797
              9     c                12.01115
             10     h                 1.00797
             11     c                12.01115
             12     h                 1.00797
             13     h                 1.00797
             14     c                12.01115
             15     c                12.01115
             16     h                 1.00797
             17     c                12.01115
             18     h                 1.00797
             19     c                12.01115
             20     h                 1.00797
             21     c                12.01115
             22     h                 1.00797
             23     c                12.01115
             24     h                 1.00797

          -------------------------------------------------
          CARTESIAN FORCE CONSTANT MATRIX (hartree/bohr**2)
         (translational & rotational space projected out)
          -------------------------------------------------

   ATOM              1 h                           2 c 
                  dx        dy        dz        dx        dy        dz
   1 h     dx  0.1294051
           dy -0.0131027 0.0276041
           dz  0.1260936-0.0227736 0.2822019
   2 c     dx -0.1250342 0.0116900-0.1166662 0.6762917
           dy  0.0117647-0.0384781 0.0205911-0.0271158 0.1381034
           dz -0.1167124 0.0205190-0.2663895 0.0299787-0.0412703 0.7131166
   3 c     dx -0.0103757 0.0005474 0.0020361-0.3326260 0.0149611-0.0329679
           dy  0.0026093 0.0027756-0.0001287 0.0109648-0.0627023 0.0061556
           dz -0.0297147 0.0013213 0.0034164 0.0297873 0.0031888-0.1269114
   4 h     dx  0.0012184-0.0002189-0.0004883-0.0110386-0.0013031 0.0294518
           dy -0.0002728-0.0039391-0.0002904 0.0007643 0.0029488-0.0015276
           dz  0.0004669-0.0003367 0.0007776-0.0022908 0.0000443 0.0038948
   5 c     dx -0.0060051 0.0006312 0.0003893-0.0266219 0.0038015-0.0310489
           dy  0.0005410 0.0072585 0.0003594 0.0070901 0.0074608-0.0002426
           dz  0.0014414 0.0002983 0.0018589-0.0743303 0.0016673 0.0313030
   6 h     dx -0.0006980 0.0000350 0.0002074 0.0007819 0.0005659-0.0033088
           dy  0.0001515 0.0002618 0.0000003 0.0004507 0.0072194 0.0009766
           dz -0.0015475 0.0000846 0.0000351-0.0022679 0.0009547-0.0048957
   7 c     dx -0.0008240-0.0000726 0.0008903-0.0493530-0.0000422 0.0283064
           dy -0.0000721-0.0006781-0.0001099-0.0000076-0.0084249-0.0007812
           dz  0.0008898-0.0001151 0.0002566 0.0283085-0.0010019-0.0151290
   8 h     dx  0.0000944-0.0000690-0.0001012-0.0008197-0.0000401 0.0008908
           dy -0.0000556-0.0013555-0.0000851-0.0000405-0.0006957-0.0001036
           dz -0.0001007-0.0000929-0.0000243 0.0008937-0.0001075 0.0002579
   9 c     dx -0.0010531 0.0000950 0.0044338 0.0621879-0.0015313-0.0203450
           dy  0.0001633 0.0073662 0.0005252-0.0045671 0.0072507 0.0057418
           dz  0.0033876 0.0006102-0.0030944 0.0228450 0.0032536-0.0577689
  10 h     dx  0.0004295 0.0000482-0.0008596-0.0008607 0.0006191-0.0032815
           dy -0.0000752 0.0002322 0.0001323 0.0006967 0.0073298 0.0008655
           dz  0.0008953 0.0000543-0.0011051-0.0043251 0.0009461-0.0032371
  11 c     dx  0.0119778 0.0006170-0.0161901-0.1807786-0.0028304 0.1220838
           dy -0.0014667 0.0026986 0.0021895 0.0013411-0.0620597 0.0096410
           dz  0.0155610 0.0007801-0.0190187 0.0592098 0.0124881-0.2790471
  12 h     dx  0.0008981-0.0002134 0.0002633-0.0121079 0.0008316-0.0029367
           dy -0.0001685-0.0038931-0.0003503-0.0012902 0.0028444-0.0000939
           dz -0.0006668-0.0003148 0.0010915 0.0288196-0.0013860 0.0049880
  13 h     dx  0.0000011 0.0000032-0.0000040 0.0000022-0.0000067 0.0000044
           dy  0.0000083-0.0000048 0.0000074-0.0000208-0.0000024-0.0000395
           dz -0.0000003 0.0000068 0.0000022-0.0000096-0.0000112-0.0000165
  14 c     dx -0.0000023-0.0000166 0.0000141-0.0000047 0.0000017-0.0000397
           dy  0.0000005-0.0000317 0.0000246 0.0000690 0.0000411 0.0000053
           dz  0.0000398-0.0000757 0.0000362-0.0000146 0.0000656-0.0000041
  15 c     dx  0.0000110-0.0000569 0.0000348-0.0000540 0.0000516-0.0000428
           dy  0.0000379-0.0000375 0.0000344-0.0000546 0.0001262-0.0001227
           dz -0.0001053 0.0001302-0.0000680 0.0000179-0.0000319 0.0001193
  16 h     dx -0.0000129 0.0000734-0.0000467 0.0000611-0.0000648 0.0000542
           dy  0.0000238-0.0000384 0.0000149 0.0000320 0.0001030 0.0000676
           dz  0.0000318-0.0000813 0.0000395 0.0000690 0.0000808 0.0000368
  17 c     dx  0.0000225-0.0000397 0.0000136-0.0003079 0.0002858 0.0003450
           dy -0.0000443 0.0000253-0.0000440 0.0002228-0.0000999 0.0001987
           dz  0.0000080-0.0000588 0.0000309 0.0003532 0.0005006 0.0000750
  18 h     dx -0.0000508 0.0000462-0.0000201 0.0002853 0.0000584-0.0004343
           dy -0.0000327 0.0001606-0.0000768 0.0001012-0.0006498 0.0002836
           dz -0.0000119 0.0000738-0.0000673-0.0004217 0.0000451-0.0002645
  19 c     dx  0.0000069-0.0000205 0.0000092 0.0000029 0.0000364 0.0000486
           dy  0.0000163-0.0000064 0.0000150-0.0001741-0.0001793-0.0001488
           dz  0.0000135 0.0000344-0.0000357-0.0000300-0.0001015-0.0002659
  20 h     dx -0.0000041 0.0000043 0.0000004-0.0000238 0.0000103-0.0000298
           dy -0.0000027 0.0000044-0.0000162 0.0000133-0.0000222-0.0000207
           dz  0.0000122-0.0000223 0.0000245-0.0000157 0.0000086 0.0000566
  21 c     dx -0.0000030 0.0000066-0.0000039 0.0000308-0.0000485-0.0000147
           dy -0.0000139 0.0000327-0.0000214-0.0001019-0.0000375-0.0000080
           dz  0.0000050-0.0000045 0.0000110 0.0000069 0.0000442 0.0000786
  22 h     dx -0.0000003 0.0000041-0.0000023-0.0000015-0.0000021-0.0000071
           dy  0.0000002 0.0000094-0.0000005-0.0000284-0.0000306-0.0000398
           dz  0.0000022-0.0000081-0.0000002 0.0000045 0.0000085 0.0000079
  23 c     dx -0.0000014 0.0000050-0.0000006-0.0000105-0.0000036 0.0000066
           dy -0.0000062 0.0000193 0.0000024-0.0000239-0.0000293-0.0000422
           dz  0.0000065-0.0000198 0.0000152 0.0000764 0.0000170-0.0000092
  24 h     dx  0.0000000 0.0000038-0.0000029-0.0000007 0.0000005-0.0000008
           dy -0.0000033 0.0000138 0.0000004-0.0000111-0.0000161-0.0000138
           dz  0.0000050-0.0000092 0.0000057 0.0000016 0.0000061 0.0000045

   ATOM              3 c                           4 h 
                  dx        dy        dz        dx        dy        dz
   3 c     dx  0.6777245
           dy -0.0241161 0.1378672
           dz -0.0344702-0.0381813 0.7119436
   4 h     dx -0.1306815-0.0033561 0.1205215 0.1355107
           dy -0.0032890-0.0370066 0.0089926 0.0032306 0.0260161
           dz  0.1204786 0.0090561-0.2621811-0.1302706-0.0103077 0.2776641
   5 c     dx -0.1764392 0.0137349-0.1187228 0.0119473-0.0015344 0.0168732
           dy  0.0095380-0.0632566 0.0213445 0.0005459 0.0027010 0.0006171
           dz -0.0558464 0.0181865-0.2821297-0.0148701 0.0022240-0.0189995
   6 h     dx -0.0114656 0.0005708 0.0026230 0.0008846-0.0002420-0.0002994
           dy  0.0026938 0.0026518-0.0003319-0.0002851-0.0038833-0.0003246
           dz -0.0291121 0.0014022 0.0045257 0.0006302-0.0003785 0.0010985
   7 c     dx  0.0622882-0.0038385 0.0229101-0.0008621 0.0006908-0.0043239
           dy -0.0008518 0.0071379 0.0036653 0.0006281 0.0073263 0.0009532
           dz -0.0203364 0.0053120-0.0577844-0.0032749 0.0009355-0.0032316
   8 h     dx -0.0010509 0.0001719 0.0033853 0.0004299-0.0000686 0.0008954
           dy  0.0000927 0.0073913 0.0005384 0.0000532 0.0002276 0.0000481
           dz  0.0044307 0.0005241-0.0031011-0.0008589 0.0001367-0.0011053
   9 c     dx -0.0479789 0.0038783-0.0288063-0.0007769 0.0000853-0.0009174
           dy  0.0038717-0.0087809 0.0019976 0.0000832-0.0007017-0.0000225
           dz -0.0288486 0.0017803-0.0161608-0.0009149-0.0000265 0.0002231
  10 h     dx -0.0007782 0.0000507-0.0009159 0.0000902-0.0000691 0.0000947
           dy  0.0000488-0.0007069-0.0000169-0.0000824-0.0013533-0.0000950
           dz -0.0009182-0.0000203 0.0002249 0.0000934-0.0001016-0.0000212
  11 c     dx -0.0291995-0.0003115 0.0297979-0.0059597 0.0006412-0.0004885
           dy -0.0035718 0.0081783-0.0032649 0.0007291 0.0072541 0.0004059
           dz  0.0730690-0.0054651 0.0331269-0.0015445 0.0004432 0.0018257
  12 h     dx  0.0006424 0.0000507 0.0034853-0.0007306 0.0000593-0.0002197
           dy  0.0001661 0.0072538 0.0006468-0.0000566 0.0002710 0.0000190
           dz  0.0024475 0.0007250-0.0047950 0.0015355-0.0000632 0.0000581
  13 h     dx  0.0000033 0.0000057-0.0000052 0.0000005-0.0000040 0.0000045
           dy  0.0000224-0.0000035-0.0000391-0.0000088-0.0000045 0.0000075
           dz  0.0000088-0.0000119-0.0000161 0.0000011 0.0000066 0.0000026
  14 c     dx -0.0000071-0.0000082 0.0000419 0.0000001 0.0000188-0.0000151
           dy -0.0000641 0.0000506 0.0000056-0.0000040-0.0000324 0.0000264
           dz  0.0000196 0.0000693-0.0000015-0.0000501-0.0000749 0.0000370
  15 c     dx -0.0000483-0.0000370 0.0000268 0.0000022 0.0000422-0.0000275
           dy  0.0000829 0.0001186-0.0001247-0.0000434-0.0000400 0.0000376
           dz -0.0000398-0.0000409 0.0001339 0.0001232 0.0001331-0.0000762
  16 h     dx  0.0000662 0.0000609-0.0000506-0.0000167-0.0000692 0.0000465
           dy -0.0000219 0.0000972 0.0000711-0.0000296-0.0000346 0.0000134
           dz -0.0000529 0.0000918 0.0000334-0.0000429-0.0000863 0.0000459
  17 c     dx -0.0003274-0.0002804-0.0003420 0.0000284 0.0000378-0.0000148
           dy -0.0001986-0.0000578 0.0002286 0.0000476 0.0000225-0.0000454
           dz -0.0003301 0.0005337 0.0000470-0.0000152-0.0000543 0.0000274
  18 h     dx  0.0002165-0.0001358 0.0004692-0.0000492-0.0000264 0.0000124
           dy -0.0001943-0.0006606 0.0002295 0.0000539 0.0001555-0.0000756
           dz  0.0004500 0.0000221-0.0002563 0.0000180 0.0000693-0.0000644
  19 c     dx  0.0000179-0.0000417-0.0000398 0.0000089 0.0000163-0.0000049
           dy  0.0001592-0.0001938-0.0001420-0.0000181-0.0000080 0.0000161
           dz  0.0000390-0.0001054-0.0002688-0.0000076 0.0000350-0.0000343
  20 h     dx -0.0000335-0.0000114 0.0000133-0.0000035-0.0000016-0.0000047
           dy -0.0000151-0.0000207-0.0000261 0.0000040 0.0000050-0.0000157
           dz  0.0000133 0.0000061 0.0000599-0.0000151-0.0000221 0.0000248
  21 c     dx  0.0000513 0.0000401 0.0000115-0.0000012-0.0000026 0.0000009
           dy  0.0000891-0.0000514-0.0000079 0.0000174 0.0000326-0.0000225
           dz -0.0000050 0.0000477 0.0000797-0.0000060-0.0000051 0.0000110
  22 h     dx  0.0000011 0.0000001 0.0000031-0.0000003-0.0000024 0.0000018
           dy  0.0000252-0.0000328-0.0000396 0.0000006 0.0000095-0.0000007
           dz -0.0000027 0.0000093 0.0000084-0.0000028-0.0000084 0.0000002
  23 c     dx  0.0000005 0.0000006-0.0000079-0.0000012-0.0000022-0.0000002
           dy  0.0000149-0.0000310-0.0000428 0.0000078 0.0000195 0.0000019
           dz -0.0000615 0.0000251 0.0000015-0.0000066-0.0000196 0.0000165
  24 h     dx -0.0000001-0.0000021-0.0000008 0.0000005-0.0000022 0.0000024
           dy  0.0000093-0.0000173-0.0000130 0.0000047 0.0000140-0.0000000
           dz -0.0000010 0.0000068 0.0000048-0.0000062-0.0000095 0.0000062

   ATOM              5 c                           6 h 
                  dx        dy        dz        dx        dy        dz
   5 c     dx  0.7334200
           dy -0.0302722 0.1376650
           dz -0.0013060-0.0366212 0.6569159
   6 h     dx -0.3336491 0.0160275-0.0022155 0.3547414
           dy  0.0162997-0.0374484 0.0017113-0.0178171 0.0265360
           dz -0.0021996 0.0017093-0.0592150 0.0023608-0.0024228 0.0583010
   7 c     dx -0.1808104 0.0016758 0.0592264-0.0121005-0.0013234 0.0288054
           dy -0.0029409-0.0619874 0.0124137 0.0009927 0.0028255-0.0016662
           dz  0.1220641 0.0092208-0.2791380-0.0029172 0.0000662 0.0049786
   8 h     dx  0.0119779-0.0015859 0.0155538 0.0008935-0.0001954-0.0006691
           dy  0.0007684 0.0026593 0.0007840-0.0002813-0.0038813-0.0003207
           dz -0.0161677 0.0023932-0.0190040 0.0002567-0.0003753 0.0010901
   9 c     dx -0.0291434-0.0030973 0.0731150 0.0006426 0.0001295 0.0024445
           dy -0.0003480 0.0080548-0.0050154 0.0000973 0.0072600 0.0007356
           dz  0.0298307-0.0030721 0.0331681 0.0034904 0.0007113-0.0047908
  10 h     dx -0.0059572 0.0007474-0.0015411-0.0007303-0.0000632 0.0015355
           dy  0.0006894 0.0072610 0.0004674 0.0000659 0.0002671-0.0000538
           dz -0.0004861 0.0004086 0.0018285-0.0002185 0.0000308 0.0000594
  11 c     dx  0.0008615-0.0004719 0.0007871 0.0007647-0.0000494 0.0000230
           dy -0.0005583-0.0090468 0.0039038-0.0000582-0.0006126 0.0000475
           dz  0.0007562 0.0038862-0.0652646 0.0000211 0.0000494-0.0013055
  12 h     dx  0.0007625-0.0000750 0.0000201-0.0000733-0.0000501-0.0000062
           dy -0.0000839-0.0006042 0.0000483-0.0000737-0.0013724-0.0001064
           dz  0.0000189 0.0000465-0.0013062-0.0000078-0.0001060 0.0001441
  13 h     dx  0.0000035 0.0000079-0.0000005-0.0000066-0.0000055-0.0000038
           dy  0.0000340-0.0000179-0.0000062-0.0000028 0.0000054-0.0000014
           dz  0.0000223-0.0000130 0.0000011-0.0000014 0.0000057-0.0000012
  14 c     dx -0.0000202 0.0000443 0.0000460 0.0000069 0.0000003 0.0000062
           dy  0.0000138-0.0000006 0.0000092-0.0000087-0.0000096-0.0000071
           dz  0.0000142 0.0000202-0.0000836-0.0000065-0.0000146-0.0000016
  15 c     dx  0.0000304-0.0000314 0.0000128 0.0000303 0.0000368 0.0000160
           dy  0.0001416 0.0000143-0.0001452-0.0000238-0.0000015 0.0000082
           dz  0.0000171 0.0001059 0.0000940-0.0000254-0.0000334 0.0000044
  16 h     dx -0.0000284 0.0000366-0.0000345-0.0000235-0.0000172-0.0000212
           dy -0.0000561 0.0000484-0.0000661 0.0000133-0.0000001 0.0000068
           dz -0.0000330 0.0000179-0.0000802 0.0000040-0.0000095-0.0000062
  17 c     dx  0.0002090-0.0006834-0.0000348 0.0000732 0.0000927 0.0000068
           dy -0.0002842-0.0001719 0.0000101 0.0000472-0.0000037-0.0000003
           dz -0.0000097 0.0000064-0.0004547 0.0000040 0.0000004 0.0000207
  18 h     dx -0.0005261-0.0000747-0.0000279-0.0000753-0.0000597-0.0000043
           dy -0.0002754-0.0005521-0.0000916 0.0001213 0.0001776 0.0000159
           dz -0.0000330-0.0000740 0.0005468 0.0000079 0.0000140-0.0000392
  19 c     dx  0.0000362-0.0000291-0.0000231 0.0000282 0.0000345-0.0000108
           dy  0.0001441-0.0000003 0.0001463-0.0000263-0.0000043-0.0000102
           dz  0.0000077-0.0001214 0.0000918 0.0000283 0.0000377 0.0000041
  20 h     dx -0.0000373 0.0000286 0.0000525-0.0000218-0.0000182 0.0000180
           dy -0.0000576 0.0000363 0.0000764 0.0000147-0.0000003-0.0000068
           dz  0.0000249 0.0000020-0.0000657-0.0000063 0.0000066-0.0000037
  21 c     dx -0.0000168 0.0000418-0.0000329 0.0000060 0.0000004-0.0000070
           dy  0.0000187 0.0000017-0.0000024-0.0000070-0.0000093 0.0000057
           dz -0.0000058-0.0000003-0.0000899 0.0000044 0.0000129 0.0000015
  22 h     dx  0.0000045 0.0000046 0.0000024-0.0000066-0.0000054 0.0000031
           dy  0.0000366-0.0000202 0.0000036-0.0000026 0.0000062 0.0000020
           dz -0.0000167 0.0000110 0.0000032 0.0000005-0.0000053-0.0000016
  23 c     dx -0.0000005-0.0000092 0.0000040 0.0000007 0.0000024 0.0000001
           dy  0.0000701-0.0000396-0.0000021-0.0000065 0.0000078 0.0000010
           dz  0.0000082-0.0000046 0.0000315-0.0000012-0.0000002-0.0000023
  24 h     dx  0.0000029 0.0000006 0.0000015-0.0000032-0.0000026-0.0000002
           dy  0.0000269-0.0000151 0.0000001-0.0000015 0.0000082 0.0000007
           dz  0.0000022 0.0000002-0.0000117-0.0000004 0.0000003-0.0000004

   ATOM              7 c                           8 h 
                  dx        dy        dz        dx        dy        dz
   7 c     dx  0.6761872
           dy -0.0285161 0.1383728
           dz  0.0298099-0.0425990 0.7129544
   8 h     dx -0.1249216 0.0129244-0.1165401 0.1292894
           dy  0.0130002-0.0388543 0.0226721-0.0143674 0.0280344
           dz -0.1164875 0.0225943-0.2660986 0.1259011-0.0250629 0.2818779
   9 c     dx -0.3326264 0.0153953-0.0329240-0.0103725 0.0004242 0.0020281
           dy  0.0105755-0.0626492 0.0061112 0.0028035 0.0027493-0.0001401
           dz  0.0297910 0.0031562-0.1268665-0.0296887 0.0014232 0.0034230
  10 h     dx -0.0110373-0.0014877 0.0294363 0.0012177-0.0002064-0.0004892
           dy  0.0008745 0.0029346-0.0014093-0.0002852-0.0039359-0.0003274
           dz -0.0022823 0.0000297 0.0038989 0.0004642-0.0003702 0.0007729
  11 c     dx -0.0266597 0.0037814-0.0310418-0.0060081 0.0005802 0.0003881
           dy  0.0065475 0.0074387-0.0000832 0.0005254 0.0072686 0.0003648
           dz -0.0743400 0.0020900 0.0313298 0.0014419 0.0003269 0.0018623
  12 h     dx  0.0007833 0.0005174-0.0033102-0.0006983 0.0000279 0.0002076
           dy  0.0004872 0.0072027 0.0010398 0.0001562 0.0002628 0.0000132
           dz -0.0022666 0.0009627-0.0048933-0.0015465 0.0000948 0.0000370
  13 h     dx -0.0000002 0.0000024-0.0000031-0.0000006-0.0000030-0.0000026
           dy  0.0000241-0.0000354 0.0000332 0.0000002 0.0000083 0.0000017
           dz  0.0000059-0.0000148 0.0000116 0.0000030 0.0000091 0.0000013
  14 c     dx  0.0000471 0.0000508-0.0000028-0.0000020-0.0000037-0.0000034
           dy  0.0000886-0.0000398-0.0000125 0.0000159 0.0000291 0.0000246
           dz  0.0000208-0.0000590 0.0000696 0.0000075 0.0000055 0.0000137
  15 c     dx  0.0000120-0.0000539 0.0000620 0.0000064 0.0000178 0.0000112
           dy  0.0001610-0.0002165 0.0001491-0.0000198-0.0000036-0.0000129
           dz -0.0000083 0.0001124-0.0002216 0.0000076-0.0000306-0.0000409
  16 h     dx -0.0000245-0.0000073-0.0000260-0.0000042-0.0000036 0.0000013
           dy -0.0000131-0.0000186 0.0000127 0.0000015-0.0000001 0.0000128
           dz -0.0000179-0.0000180 0.0000546 0.0000144 0.0000179 0.0000292
  17 c     dx -0.0003342-0.0003103 0.0002895 0.0000281 0.0000357 0.0000202
           dy -0.0002360 0.0000320-0.0002415 0.0000448 0.0000122 0.0000453
           dz  0.0002924-0.0005345-0.0000305 0.0000205 0.0000527 0.0000408
  18 h     dx  0.0002432-0.0000734-0.0004638-0.0000483-0.0000227-0.0000146
           dy -0.0000990-0.0005652-0.0002526 0.0000532 0.0001501 0.0001072
           dz -0.0004541-0.0000602-0.0003068-0.0000098-0.0000391-0.0000590
  19 c     dx -0.0000584-0.0000408-0.0000480 0.0000147 0.0000521 0.0000423
           dy  0.0000722 0.0000951 0.0001287-0.0000278-0.0000192-0.0000305
           dz  0.0000268 0.0000273 0.0001396-0.0001246-0.0001141-0.0000906
  20 h     dx  0.0000652 0.0000655 0.0000583-0.0000238-0.0000715-0.0000612
           dy -0.0000368 0.0001104-0.0000631-0.0000307-0.0000360-0.0000223
           dz  0.0000593-0.0000748 0.0000176 0.0000357 0.0000685 0.0000490
  21 c     dx -0.0000088 0.0000004-0.0000482-0.0000006 0.0000130 0.0000148
           dy -0.0000602 0.0000616-0.0000017-0.0000096-0.0000380-0.0000374
           dz -0.0000240-0.0000605-0.0000127 0.0000474 0.0000631 0.0000423
  22 h     dx  0.0000035 0.0000033 0.0000072 0.0000004-0.0000029-0.0000051
           dy  0.0000221-0.0000107 0.0000393-0.0000086-0.0000021-0.0000080
           dz -0.0000061 0.0000129-0.0000098-0.0000022-0.0000072 0.0000003
  23 c     dx -0.0000094 0.0000015 0.0000113-0.0000019-0.0000040-0.0000015
           dy  0.0000091-0.0000394 0.0000483 0.0000071 0.0000161-0.0000014
           dz  0.0000634-0.0000298 0.0000060 0.0000071 0.0000197 0.0000191
  24 h     dx  0.0000009-0.0000012-0.0000005 0.0000000-0.0000027-0.0000035
           dy  0.0000093-0.0000179 0.0000111 0.0000040 0.0000126 0.0000010
           dz  0.0000025-0.0000096 0.0000052 0.0000065 0.0000097 0.0000072

   ATOM              9 c                          10 h 
                  dx        dy        dz        dx        dy        dz
   9 c     dx  0.6777669
           dy -0.0228118 0.1379429
           dz -0.0345117-0.0393834 0.7116703
  10 h     dx -0.1307991-0.0045000 0.1205430 0.1356298
           dy -0.0045561-0.0371638 0.0110496 0.0044763 0.0262116
           dz  0.1204839 0.0109938-0.2618898-0.1302871-0.0125167 0.2773431
  11 c     dx -0.1763713 0.0138953-0.1186823 0.0119419-0.0016916 0.0168686
           dy  0.0092740-0.0632899 0.0208363 0.0006578 0.0026926 0.0008192
           dz -0.0558506 0.0180750-0.2821507-0.0148635 0.0022325-0.0189844
  12 h     dx -0.0114717 0.0004178 0.0026220 0.0008890-0.0001744-0.0002962
           dy  0.0027257 0.0026815-0.0001641-0.0002591-0.0038927-0.0003483
           dz -0.0291179 0.0011217 0.0045208 0.0006324-0.0003831 0.0010968
  13 h     dx -0.0000024-0.0000024 0.0000036-0.0000002 0.0000025 0.0000022
           dy -0.0000276-0.0000341 0.0000332 0.0000004 0.0000081 0.0000016
           dz -0.0000079-0.0000148 0.0000115-0.0000020 0.0000096 0.0000016
  14 c     dx  0.0000413-0.0000441-0.0000045-0.0000010 0.0000030 0.0000025
           dy -0.0000983-0.0000294-0.0000125-0.0000143 0.0000298 0.0000238
           dz -0.0000177-0.0000676 0.0000774-0.0000061 0.0000080 0.0000157
  15 c     dx -0.0000020 0.0000303-0.0000367 0.0000093-0.0000181-0.0000088
           dy -0.0001717-0.0002215 0.0001582 0.0000173-0.0000021-0.0000115
           dz  0.0000253 0.0001091-0.0002312-0.0000089-0.0000291-0.0000392
  16 h     dx -0.0000347 0.0000092 0.0000153-0.0000035 0.0000024-0.0000027
           dy  0.0000126-0.0000229 0.0000119-0.0000018 0.0000006 0.0000127
           dz  0.0000114-0.0000194 0.0000599-0.0000137 0.0000201 0.0000291
  17 c     dx -0.0002922 0.0003456-0.0003114 0.0000222-0.0000378-0.0000186
           dy  0.0002583-0.0000041-0.0002166-0.0000455 0.0000185 0.0000439
           dz -0.0003268-0.0005106-0.0000399-0.0000143 0.0000541 0.0000421
  18 h     dx  0.0002514-0.0000031 0.0004539-0.0000510 0.0000439 0.0000258
           dy  0.0000140-0.0006206-0.0003133-0.0000345 0.0001509 0.0001061
           dz  0.0004423-0.0001122-0.0003095 0.0000069-0.0000417-0.0000607
  19 c     dx -0.0000445 0.0000423 0.0000464-0.0000009-0.0000373-0.0000351
           dy -0.0000585 0.0001004 0.0001270 0.0000265-0.0000198-0.0000284
           dz -0.0000456 0.0000415 0.0001514 0.0001165-0.0001387-0.0001015
  20 h     dx  0.0000648-0.0000545-0.0000647-0.0000080 0.0000617 0.0000544
           dy  0.0000403 0.0001214-0.0000546 0.0000311-0.0000534-0.0000314
           dz -0.0000623-0.0000793 0.0000146-0.0000311 0.0000784 0.0000548
  21 c     dx  0.0000100 0.0000029 0.0000487-0.0000020-0.0000165-0.0000188
           dy  0.0000666 0.0000541-0.0000056 0.0000065-0.0000355-0.0000345
           dz  0.0000231-0.0000652-0.0000115-0.0000416 0.0000710 0.0000447
  22 h     dx  0.0000031-0.0000058-0.0000030 0.0000012 0.0000033 0.0000044
           dy -0.0000232-0.0000083 0.0000403 0.0000085-0.0000035-0.0000083
           dz  0.0000067 0.0000124-0.0000097 0.0000015-0.0000075 0.0000005
  23 c     dx  0.0000012-0.0000017-0.0000108-0.0000019 0.0000037-0.0000002
           dy -0.0000129-0.0000375 0.0000472-0.0000054 0.0000173-0.0000003
           dz -0.0000779-0.0000245-0.0000015-0.0000057 0.0000197 0.0000182
  24 h     dx  0.0000001 0.0000007-0.0000002 0.0000005 0.0000026 0.0000028
           dy -0.0000105-0.0000173 0.0000104-0.0000028 0.0000130 0.0000010
           dz -0.0000032-0.0000098 0.0000052-0.0000056 0.0000109 0.0000078

   ATOM             11 c                          12 h 
                  dx        dy        dz        dx        dy        dz
  11 c     dx  0.7336626
           dy -0.0266371 0.1374199
           dz -0.0010503-0.0365075 0.6568538
  12 h     dx -0.3339786 0.0125923-0.0024597 0.3550969
           dy  0.0123199-0.0371025 0.0016791-0.0138858 0.0261595
           dz -0.0024838 0.0016874-0.0592203 0.0026372-0.0023996 0.0583024
  13 h     dx  0.0000018-0.0000068 0.0000016-0.0000059 0.0000058 0.0000036
           dy -0.0000364-0.0000157-0.0000076 0.0000032 0.0000052-0.0000013
           dz -0.0000231-0.0000115 0.0000006 0.0000015 0.0000062-0.0000010
  14 c     dx -0.0000124-0.0000401-0.0000361 0.0000058 0.0000007-0.0000062
           dy -0.0000182-0.0000018 0.0000099 0.0000046-0.0000067-0.0000068
           dz -0.0000183 0.0000126-0.0000805 0.0000036-0.0000136-0.0000003
  15 c     dx  0.0000337 0.0000246-0.0000351 0.0000262-0.0000340-0.0000144
           dy -0.0001461 0.0000106-0.0001572 0.0000201 0.0000004 0.0000101
           dz  0.0000001 0.0001127 0.0000773 0.0000258-0.0000395-0.0000002
  16 h     dx -0.0000321-0.0000263 0.0000404-0.0000209 0.0000173 0.0000205
           dy  0.0000603 0.0000417-0.0000682-0.0000116-0.0000008 0.0000049
           dz  0.0000297 0.0000085-0.0000703-0.0000082-0.0000057-0.0000037
  17 c     dx  0.0002818 0.0006539 0.0000530 0.0000633-0.0001009-0.0000061
           dy  0.0002520-0.0002404 0.0000125-0.0000464 0.0000006-0.0000035
           dz  0.0000186 0.0000278-0.0004523-0.0000019-0.0000032 0.0000223
  18 h     dx -0.0004805 0.0000577-0.0000076-0.0000833 0.0000891 0.0000057
           dy  0.0002850-0.0006300-0.0001001-0.0000988 0.0001858 0.0000160
           dz  0.0000104-0.0000848 0.0005722-0.0000073 0.0000170-0.0000391
  19 c     dx  0.0000165 0.0000283 0.0000268 0.0000277-0.0000411 0.0000097
           dy -0.0001464 0.0000162 0.0001494 0.0000232-0.0000024-0.0000090
           dz -0.0000138-0.0001166 0.0000952-0.0000188 0.0000338 0.0000073
  20 h     dx -0.0000277-0.0000243-0.0000333-0.0000229 0.0000218-0.0000193
           dy  0.0000666 0.0000376 0.0000858-0.0000122-0.0000009-0.0000045
           dz -0.0000263 0.0000022-0.0000738 0.0000036 0.0000101-0.0000053
  21 c     dx -0.0000316-0.0000441 0.0000412 0.0000064-0.0000031 0.0000074
           dy -0.0000183 0.0000060-0.0000076 0.0000070-0.0000124 0.0000045
           dz  0.0000052 0.0000000-0.0000874-0.0000032 0.0000132 0.0000018
  22 h     dx -0.0000004-0.0000075-0.0000028-0.0000058 0.0000066-0.0000028
           dy -0.0000392-0.0000170 0.0000043 0.0000036 0.0000053 0.0000026
           dz  0.0000181 0.0000092 0.0000026-0.0000015-0.0000047-0.0000017
  23 c     dx -0.0000030 0.0000105 0.0000006 0.0000005-0.0000026 0.0000001
           dy -0.0000744-0.0000340 0.0000017 0.0000067 0.0000073 0.0000013
           dz -0.0000098-0.0000004 0.0000206-0.0000002 0.0000022-0.0000037
  24 h     dx  0.0000009-0.0000011 0.0000011-0.0000028 0.0000032 0.0000003
           dy -0.0000279-0.0000124-0.0000007 0.0000025 0.0000078 0.0000005
           dz -0.0000026 0.0000002-0.0000114-0.0000001 0.0000008-0.0000004

   ATOM             13 h                          14 c 
                  dx        dy        dz        dx        dy        dz
  13 h     dx  0.0250903
           dy -0.0009598 0.1170069
           dz -0.0053568 0.1181392 0.2954281
  14 c     dx -0.0348202 0.0010946 0.0047331 0.1289523
           dy  0.0010909-0.1136072-0.1090088 0.0175452 0.6736123
           dz  0.0047316-0.1090820-0.2782324-0.0193756 0.0296654 0.7169763
  15 c     dx  0.0018416 0.0006985 0.0000520-0.0589478-0.0099516 0.0008590
           dy -0.0004081-0.0087990 0.0013218-0.0077676-0.3324527-0.0446147
           dz -0.0010368-0.0305594 0.0016380 0.0030258 0.0184751-0.1277242
  16 h     dx -0.0037074 0.0001495-0.0001737 0.0018285-0.0003736 0.0008629
           dy  0.0001854 0.0012134-0.0004709-0.0014800-0.0123474 0.0286299
           dz -0.0001389 0.0005523 0.0008157-0.0002239-0.0032120 0.0051371
  17 c     dx  0.0076334-0.0005086 0.0001933 0.0073509 0.0017307-0.0018108
           dy -0.0004680-0.0062039-0.0001524 0.0002138-0.0210820-0.0340674
           dz  0.0002310 0.0010084 0.0019460-0.0032967-0.0775759 0.0257040
  18 h     dx  0.0001747 0.0000342 0.0000149 0.0074242-0.0001489 0.0003522
           dy -0.0000293-0.0004696 0.0001887-0.0001382 0.0010129-0.0025728
           dz -0.0000464-0.0015892-0.0000654 0.0003687-0.0019875-0.0051748
  19 c     dx -0.0005908-0.0000407-0.0000051-0.0088807-0.0024038 0.0010490
           dy -0.0000417-0.0009157 0.0008331-0.0024264-0.0524923 0.0267548
           dz -0.0000041 0.0008547 0.0003774 0.0010299 0.0261776-0.0124293
  20 h     dx -0.0014251 0.0000558-0.0000514-0.0004348-0.0000459 0.0000032
           dy  0.0000556 0.0001081-0.0000888-0.0000452-0.0008795 0.0008335
           dz -0.0000517-0.0001023-0.0000333 0.0000040 0.0008700 0.0003193
  21 c     dx  0.0074657-0.0004223 0.0005094 0.0069322 0.0008365 0.0017521
           dy -0.0004617-0.0014157 0.0045483 0.0023785 0.0617382-0.0146530
           dz  0.0004697 0.0033908-0.0027001 0.0032542 0.0297026-0.0577999
  22 h     dx  0.0002749-0.0000290 0.0000220 0.0074941-0.0001241 0.0002809
           dy  0.0000319 0.0004145-0.0007832-0.0001641-0.0004604-0.0031313
           dz  0.0000824 0.0009760-0.0011345 0.0002414-0.0042870-0.0036723
  23 c     dx  0.0017865-0.0002515 0.0002209-0.0585319-0.0066548 0.0116057
           dy  0.0008574 0.0118192-0.0148136-0.0088390-0.1894395 0.1264416
           dz  0.0013093 0.0170975-0.0191308 0.0094497 0.0632587-0.2695387
  24 h     dx -0.0037202 0.0001832-0.0001568 0.0015816-0.0014854-0.0003023
           dy  0.0001484 0.0009402 0.0003197-0.0003783-0.0136011-0.0040797
           dz -0.0001902-0.0006756 0.0010935 0.0007865 0.0278313 0.0063567

   ATOM             15 c                          16 h 
                  dx        dy        dz        dx        dy        dz
  15 c     dx  0.1318529
           dy  0.0199164 0.6821610
           dz -0.0212019-0.0320751 0.7092062
  16 h     dx -0.0361837-0.0080549 0.0116881 0.0259640
           dy -0.0080547-0.1431931 0.1259161 0.0089630 0.1488616
           dz  0.0116806 0.1258498-0.2478088-0.0129235-0.1364429 0.2627654
  17 c     dx -0.0631226-0.0018270 0.0040608 0.0030230 0.0007491 0.0014129
           dy  0.0003705-0.1690072-0.1145210-0.0003472 0.0117349 0.0185558
           dz  0.0062216-0.0514907-0.2922279 0.0003289-0.0130020-0.0193010
  18 h     dx  0.0034459 0.0006182 0.0000587-0.0040547 0.0001426-0.0001853
           dy -0.0004712-0.0089488 0.0013025 0.0001709 0.0007835-0.0001153
           dz -0.0010101-0.0298998 0.0029242-0.0001575 0.0006366 0.0011719
  19 c     dx  0.0093006 0.0022870 0.0033137 0.0069803-0.0001447 0.0002286
           dy  0.0007776 0.0619929 0.0291831-0.0001102-0.0004536-0.0041840
           dz  0.0018503-0.0141405-0.0576456 0.0002610-0.0031938-0.0036912
  20 h     dx  0.0069746-0.0004424 0.0004565 0.0003075 0.0000314 0.0000849
           dy -0.0004087-0.0014025 0.0034605-0.0000296 0.0004296 0.0009788
           dz  0.0004894 0.0044473-0.0027235 0.0000243-0.0007801-0.0011666
  21 c     dx -0.0087509-0.0001754-0.0006618-0.0004153 0.0000237-0.0000519
           dy -0.0001934-0.0453383-0.0303873 0.0000268-0.0006527-0.0009913
           dz -0.0006817-0.0309825-0.0196987-0.0000498-0.0009543 0.0000880
  22 h     dx -0.0005968 0.0000292-0.0000593-0.0014267 0.0000483-0.0000452
           dy  0.0000313-0.0006898-0.0009877 0.0000473 0.0000822 0.0001200
           dz -0.0000585-0.0009672 0.0001463-0.0000457 0.0001069-0.0000069
  23 c     dx  0.0064471-0.0038352-0.0002258 0.0075118-0.0003845 0.0001741
           dy -0.0023023-0.0344124 0.0258814-0.0004256-0.0058096-0.0008712
           dz  0.0012886 0.0701036 0.0386340 0.0001328-0.0020307 0.0017144
  24 h     dx  0.0076820-0.0003417 0.0005526 0.0002467-0.0000888-0.0000042
           dy -0.0003844 0.0003423 0.0038138-0.0000277-0.0008242-0.0002570
           dz  0.0005125 0.0026246-0.0044718 0.0000556 0.0014906 0.0001141

   ATOM             17 c                          18 h 
                  dx        dy        dz        dx        dy        dz
  17 c     dx  0.1380132
           dy  0.0204167 0.7408199
           dz -0.0179182 0.0057526 0.6604004
  18 h     dx -0.0381551-0.0097081 0.0001848 0.0267761
           dy -0.0096784-0.3379763-0.0176379 0.0107849 0.3592295
           dz  0.0001773-0.0176534-0.0603618-0.0005158 0.0190327 0.0599925
  19 c     dx -0.0634979-0.0087364 0.0092739 0.0033815-0.0004222 0.0008620
           dy -0.0065664-0.1912744 0.0637455-0.0014992-0.0122714 0.0279798
           dz  0.0114376 0.1267840-0.2695833-0.0002055-0.0032341 0.0063068
  20 h     dx  0.0030156 0.0008206 0.0013533-0.0040543 0.0001683-0.0001987
           dy -0.0002792 0.0119354 0.0168868 0.0001959 0.0008813-0.0006463
           dz  0.0002786-0.0146511-0.0195012-0.0001789 0.0000955 0.0010906
  21 c     dx  0.0070646-0.0023336 0.0013053 0.0074097-0.0003544 0.0005019
           dy -0.0038325-0.0340109 0.0700610-0.0003339 0.0003593 0.0026612
           dz -0.0001866 0.0265572 0.0388868 0.0005195 0.0032403-0.0045138
  22 h     dx  0.0076482-0.0004366 0.0001392 0.0001730-0.0000181 0.0000544
           dy -0.0003962-0.0059700-0.0020225-0.0000793-0.0006352 0.0015176
           dz  0.0001766-0.0008628 0.0017112-0.0000066-0.0002620 0.0001024
  23 c     dx -0.0074008 0.0001357 0.0021639-0.0008962 0.0000516 0.0000159
           dy  0.0001363 0.0007407 0.0041294 0.0000518 0.0007771 0.0001296
           dz  0.0021642 0.0041389-0.0656887 0.0000171 0.0001251-0.0012774
  24 h     dx -0.0010394 0.0000549 0.0000142-0.0012565 0.0000422-0.0000495
           dy  0.0000566 0.0007605 0.0001310 0.0000422-0.0000445-0.0000107
           dz  0.0000140 0.0001315-0.0013131-0.0000494-0.0000109 0.0001526

   ATOM             19 c                          20 h 
                  dx        dy        dz        dx        dy        dz
  19 c     dx  0.1316094
           dy  0.0175130 0.6748071
           dz -0.0192615 0.0290471 0.7168292
  20 h     dx -0.0356184 0.0011102 0.0046424 0.0253708
           dy  0.0011152-0.1139847-0.1094767-0.0009792 0.1171862
           dz  0.0046480-0.1094146-0.2775921-0.0052903 0.1185720 0.2950402
  21 c     dx -0.0588128-0.0099539 0.0008598 0.0018815 0.0006848 0.0000548
           dy -0.0077734-0.3324861-0.0445498-0.0004198-0.0089658 0.0014352
           dz  0.0030264 0.0185140-0.1277136-0.0010305-0.0303985 0.0016968
  22 h     dx  0.0017599-0.0003708 0.0008672-0.0037126 0.0001509-0.0001741
           dy -0.0014755-0.0122124 0.0288008 0.0001859 0.0012161-0.0004916
           dz -0.0002200-0.0030767 0.0051177-0.0001390 0.0005323 0.0008132
  23 c     dx  0.0066142 0.0017354-0.0018086 0.0075217-0.0004994 0.0001878
           dy  0.0002006-0.0215479-0.0334379-0.0004592-0.0060473-0.0001234
           dz -0.0033176-0.0776419 0.0255343 0.0002292 0.0010345 0.0019574
  24 h     dx  0.0076986-0.0001579 0.0003401 0.0002500 0.0000237 0.0000160
           dy -0.0001186 0.0010601-0.0031432-0.0000365-0.0006587 0.0001589
           dz  0.0003813-0.0019538-0.0052031-0.0000436-0.0015886-0.0000542

   ATOM             21 c                          22 h 
                  dx        dy        dz        dx        dy        dz
  21 c     dx  0.1289353
           dy  0.0199905 0.6811777
           dz -0.0212822-0.0328339 0.7091839
  22 h     dx -0.0353587-0.0080375 0.0117009 0.0256973
           dy -0.0080382-0.1427415 0.1256682 0.0089317 0.1485701
           dz  0.0116962 0.1255921-0.2485241-0.0129031-0.1360947 0.2632426
  23 c     dx -0.0580314-0.0019652 0.0042381 0.0017705 0.0007946 0.0013550
           dy  0.0002304-0.1672823-0.1139939-0.0003095 0.0116239 0.0186540
           dz  0.0063912-0.0508049-0.2920590 0.0002647-0.0132531-0.0189332
  24 h     dx  0.0016394 0.0006272 0.0000155-0.0037218 0.0001356-0.0001801
           dy -0.0004784-0.0103866 0.0019735 0.0001696 0.0008973-0.0003328
           dz -0.0010738-0.0299387 0.0030845-0.0001462 0.0006623 0.0011376

   ATOM             23 c                          24 h 
                  dx        dy        dz        dx        dy        dz
  23 c     dx  0.1277847
           dy  0.0204349 0.7311746
           dz -0.0182462 0.0051859 0.6589671
  24 h     dx -0.0345496-0.0095622 0.0003182 0.0251902
           dy -0.0095620-0.3314731-0.0171982 0.0105695 0.3530145
           dz  0.0003177-0.0171967-0.0602911-0.0005630 0.0186272 0.0593717
 

   *** projected hessian written onto $hessian (projected), file=<hessian> ***

 dipole moment in principle axis system (a.u.) :
    -0.0018208231    -0.1901824559     0.0003512082
 norm :  0.190191496304650     

 rotational constants b for rotations around axis of inertia
 and optical intensities for (1 <-- 0) transition

   b   :     0.0136931147     0.0635981332     0.0147505880   (cm**(-1))
   b   :         410.5093        1906.6241         442.2115     (MHz)
  int. :     0.0000033154     0.0361693665     0.0000001233     (a.u.)

   x   :     0.9985231320     0.0399570138    -0.0368102151
   y   :    -0.0422923965     0.9969875304    -0.0650170548
   z   :     0.0341014381     0.0664778254     0.9972049893

   ***  normal modes written onto $vibrational normal modes, file=<vib_normal_modes>  ***

   ***  vibrational spectroscopic data written onto$vibrational spectrum   
        file=<vibspectrum>  ***

          ---------------------------------------------------
          NORMAL MODES and VIBRATIONAL FREQUENCIES (cm**(-1))
          ---------------------------------------------------

 imaginary wave numbers indicate a negative curvature of the energy surface.
 zero frequency modes have no physical meaning except being generators of
 translations and rotations. each vibrational normal mode - given in terms of
 cartesian displacement vectors of all atoms - has been normalized to unity.
 to obtain mass-weigthed normal coordinates in a.u. divide the tabulated
 modes by sqrt(reduced mass * 1822.88853).
 band intensities or cross sections refer to independent non-degenerate normal
 modes, that is, the intensities of degenerate modes have yet to be added.
 dDIP/dQ is the normal mode derivative of the dipole moment.

 WARNING: values of IR intensities are questionable for saddle point structures


       mode               1        2        3        4        5        6

     frequency         i22.84    i9.53    i6.59     0.00     0.00     0.00

     symmetry            a        a        a                              

        IR               YES      YES      YES       -        -        - 
|dDIP/dQ|   (a.u.)     0.0000   0.0000   0.0000   0.0000   0.0000   0.0000
intensity (km/mol)       0.00     0.00     0.00     0.00     0.00     0.00
intensity (  %   )       0.00     0.00     0.00     0.00     0.00     0.00
 
       RAMAN             YES      YES      YES       -        -        - 
 
  1   h           x   0.00433 -0.00063  0.18003 -0.28305  0.21307 -0.05210
                  y   0.22023 -0.16490  0.01758 -0.05145  0.02123  0.21582
                  z   0.04672 -0.02206 -0.09811  0.18373  0.11206  0.13810
  2   c           x   0.00159 -0.00489  0.10170 -0.18743  0.22670 -0.01837
                  y   0.12275 -0.09054  0.00966 -0.04133 -0.01161  0.19371
                  z   0.03930 -0.01287 -0.05464  0.13078  0.10137  0.11707
  3   c           x   0.00239  0.00287  0.09960 -0.18380  0.22426 -0.01909
                  y   0.13537  0.07440 -0.01291  0.00907 -0.06707  0.16904
                  z   0.03719  0.00912  0.05905 -0.00650  0.07533  0.06409
  4   h           x   0.00546  0.01317  0.17625 -0.27659  0.20874 -0.05338
                  y   0.24278  0.12980 -0.02410  0.03821 -0.07742  0.17192
                  z   0.04299  0.01725  0.10417 -0.06047  0.06574  0.04385
  5   c           x  -0.00111 -0.00163 -0.00104 -0.06079  0.24151  0.02410
                  y   0.01018  0.16897 -0.02185  0.02205 -0.10924  0.14066
                  z   0.02703  0.02111  0.11481 -0.07452  0.06152  0.03700
  6   h           x  -0.00055  0.00535 -0.00273 -0.05776  0.23933  0.02340
                  y   0.02008  0.29882 -0.03935  0.06128 -0.15239  0.12147
                  z   0.02483  0.03852  0.20307 -0.18141  0.04117 -0.00431
  7   c           x  -0.00518 -0.01448 -0.09955  0.05857  0.26124  0.06804
                  y  -0.12749  0.09846 -0.00857 -0.01538 -0.09594  0.13696
                  z   0.01894  0.01084  0.05692 -0.00525  0.07378  0.06292
  8   h           x  -0.00765 -0.01770 -0.17791  0.15445  0.27449  0.10158
                  y  -0.22489  0.17286 -0.01497 -0.00527 -0.12876  0.11488
                  z   0.01045  0.02025  0.10047 -0.05826  0.06297  0.04178
  9   c           x  -0.00563 -0.02223 -0.09750  0.05493  0.26368  0.06876
                  y  -0.14015 -0.06649  0.01352 -0.06578 -0.04048  0.16164
                  z   0.02099 -0.01172 -0.05679  0.13202  0.09982  0.11590
 10   h           x  -0.00888 -0.03157 -0.17431  0.14799  0.27884  0.10287
                  y  -0.24736 -0.12213  0.02294 -0.09493 -0.03010  0.15877
                  z   0.01410 -0.01989 -0.10204  0.18595  0.10931  0.13603
 11   c           x  -0.00228 -0.01715  0.00313 -0.06805  0.24639  0.02555
                  y  -0.01518 -0.16098  0.02282 -0.07876  0.00169  0.19001
                  z   0.03117 -0.02339 -0.11255  0.20004  0.11361  0.14297
 12   h           x  -0.00271 -0.02238  0.00468 -0.07068  0.24802  0.02597
                  y  -0.02516 -0.29092  0.04034 -0.11800  0.04488  0.20923
                  z   0.03215 -0.04065 -0.20084  0.30687  0.13381  0.18413
 13   h           x  -0.02022 -0.22578 -0.33519 -0.09464 -0.04332 -0.17744
                  y  -0.26062  0.01685  0.00643 -0.00962 -0.01533  0.20281
                  z   0.10128 -0.01337 -0.01047  0.02018  0.01492  0.01410
 14   c           x  -0.01062 -0.12257 -0.18900 -0.01685 -0.00651 -0.13259
                  y  -0.14572  0.00774  0.00341 -0.01968 -0.02676  0.18996
                  z   0.04421 -0.00701 -0.00638  0.02657  0.02127  0.02129
 15   c           x   0.00783  0.10295 -0.21124 -0.05859  0.05033 -0.10479
                  y  -0.13586 -0.00045  0.00435 -0.01893 -0.02963  0.18798
                  z  -0.12011  0.00880 -0.00999  0.03572  0.03780  0.03844
 16   h           x   0.01248  0.17467 -0.37466 -0.16894  0.05790 -0.12794
                  y  -0.24472  0.00236  0.00803 -0.00828 -0.02045  0.19927
                  z  -0.19251  0.01480 -0.01693  0.03646  0.04436  0.04464
 17   c           x   0.02023  0.23590 -0.02345  0.04118  0.09761 -0.04722
                  y   0.01225 -0.01218  0.00048 -0.03184 -0.04430  0.17150
                  z  -0.19380  0.01701 -0.00473  0.04392  0.04595  0.04768
 18   h           x   0.03439  0.40953 -0.04058  0.00866  0.14178 -0.02564
                  y   0.01984 -0.01854  0.00121 -0.03124 -0.04653  0.16996
                  z  -0.32128  0.02921 -0.00757  0.05101  0.05880  0.06101
 19   c           x   0.01406  0.14125  0.18675  0.18288  0.08797 -0.01744
                  y   0.15045 -0.01566 -0.00429 -0.04551 -0.05611  0.15698
                  z  -0.10218  0.00928  0.00412  0.04295  0.03755  0.03974
 20   h           x   0.02384  0.24268  0.33291  0.26048  0.12485  0.02742
                  y   0.26709 -0.02482 -0.00720 -0.05555 -0.06754  0.14415
                  z  -0.16044  0.01564  0.00813  0.04934  0.04391  0.04695
 21   c           x  -0.00448 -0.08420  0.20930  0.22483  0.03117 -0.04515
                  y   0.14080 -0.00748 -0.00523 -0.04628 -0.05327  0.15894
                  z   0.06214 -0.00653  0.00772  0.03382  0.02102  0.02259
 22   h           x  -0.00927 -0.15744  0.37288  0.33524  0.02370 -0.02193
                  y   0.24815 -0.01018 -0.00898 -0.05693 -0.06247  0.14762
                  z   0.13319 -0.01252  0.01462  0.03307  0.01447  0.01641
 23   c           x  -0.01680 -0.21573  0.02130  0.12493 -0.01609 -0.10275
                  y  -0.00742  0.00422 -0.00137 -0.03336 -0.03858  0.17544
                  z   0.13549 -0.01467  0.00247  0.02562  0.01287  0.01336
 24   h           x  -0.03120 -0.39088  0.03871  0.15752 -0.06034 -0.12437
                  y  -0.01506  0.01060 -0.00211 -0.03396 -0.03636  0.17697
                  z   0.26396 -0.02701  0.00531  0.01851  0.00000  0.00000

reduced mass(g/mol)     3.706    3.659    3.653    4.271    6.202    6.145


       mode               7        8        9       10       11       12

     frequency           0.00     0.00     0.00    49.19    60.89    62.29

     symmetry                                       a        a        a   

        IR                -        -        -       YES      YES      YES
|dDIP/dQ|   (a.u.)     0.0000   0.0000   0.0000   0.0002   0.0002   0.0002
intensity (km/mol)       0.00     0.00     0.00     0.10     0.06     0.10
intensity (  %   )       0.00     0.00     0.00     0.08     0.05     0.08
 
       RAMAN              -        -        -       YES      YES      YES
 
  1   h           x  -0.11355 -0.06839 -0.01496 -0.00818 -0.01523 -0.05252
                  y  -0.02507 -0.00576  0.11497 -0.21251 -0.37868  0.17609
                  z   0.06953 -0.12241  0.07516 -0.01499  0.04174  0.01548
  2   c           x  -0.07339 -0.00537 -0.01021 -0.00839 -0.00711 -0.05598
                  y  -0.04894  0.01214  0.05951 -0.20531 -0.21260  0.09948
                  z   0.04471 -0.15627  0.06740 -0.01431  0.05237  0.01037
  3   c           x  -0.07542 -0.00517 -0.01000 -0.00817 -0.00658 -0.06643
                  y  -0.10294 -0.00053  0.06186 -0.20142 -0.19989 -0.12011
                  z  -0.01981 -0.24894  0.05664 -0.01314  0.05294 -0.00457
  4   h           x  -0.11716 -0.06802 -0.01459 -0.00767 -0.01414 -0.07123
                  y  -0.12112 -0.02830  0.11915 -0.20551 -0.35601 -0.21790
                  z  -0.04525 -0.28725  0.05603 -0.01290  0.04274 -0.01105
  5   c           x  -0.02410  0.07569 -0.00389 -0.00882  0.00369 -0.07150
                  y  -0.13358  0.02245 -0.00937 -0.19847  0.00837 -0.21703
                  z  -0.05170 -0.29225  0.04629 -0.01239  0.06753 -0.01089
  6   h           x  -0.02596  0.07576 -0.00372 -0.00908  0.00424 -0.08100
                  y  -0.17560  0.01258 -0.00751 -0.20092  0.01854 -0.39257
                  z  -0.10193 -0.36419  0.03751 -0.01184  0.06887 -0.02253
  7   c           x   0.02930  0.15636  0.00201 -0.00961  0.01328 -0.06635
                  y  -0.11023  0.05811 -0.08295 -0.19873  0.20380 -0.09354
                  z  -0.01905 -0.24292  0.04676 -0.01280  0.08111 -0.00249
  8   h           x   0.06908  0.21925  0.00677 -0.01023  0.02132 -0.07106
                  y  -0.13408  0.07600 -0.13838 -0.20073  0.36982 -0.17014
                  z  -0.04389 -0.27654  0.03844 -0.01275  0.09348 -0.00759
  9   c           x   0.03134  0.15616  0.00180 -0.00979  0.01257 -0.05594
                  y  -0.05623  0.07078 -0.08530 -0.20217  0.19106  0.12608
                  z   0.04547 -0.15026  0.05752 -0.01395  0.08057  0.01201
 10   h           x   0.07271  0.21889  0.00640 -0.01068  0.02042 -0.05228
                  y  -0.03803  0.09854 -0.14256 -0.20679  0.34702  0.22377
                  z   0.07089 -0.11171  0.05760 -0.01478  0.09251  0.01868
 11   c           x  -0.02003  0.07528 -0.00431 -0.00917  0.00237 -0.05061
                  y  -0.02558  0.04780 -0.01407 -0.20573 -0.01688  0.22288
                  z   0.07735 -0.10692  0.06781 -0.01470  0.06645  0.01853
 12   h           x  -0.01873  0.07503 -0.00446 -0.00938  0.00195 -0.04338
                  y   0.01646  0.05765 -0.01588 -0.21396 -0.02685  0.39830
                  z   0.12756 -0.03461  0.07579 -0.01597  0.06693  0.03024
 13   h           x  -0.37505 -0.15384 -0.00298 -0.00034  0.00377 -0.07658
                  y  -0.06420 -0.02518  0.14129  0.20328 -0.13601 -0.01031
                  z  -0.00068 -0.04120 -0.30689  0.01245  0.00273 -0.00263
 14   c           x  -0.31144 -0.08354  0.00064  0.00383  0.00073 -0.01545
                  y  -0.06693 -0.00147  0.08285  0.20383 -0.07463 -0.00713
                  z   0.00180 -0.05176 -0.27772  0.01230 -0.02789 -0.00313
 15   c           x  -0.25347 -0.06458 -0.00201  0.01126 -0.01123  0.13892
                  y  -0.06896  0.00027  0.07762  0.20299 -0.06827 -0.01187
                  z   0.00461 -0.08847 -0.19437  0.01360 -0.11573 -0.00531
 16   h           x  -0.27180 -0.12006 -0.00771  0.01297 -0.01734  0.19608
                  y  -0.06782 -0.02208  0.13195  0.20606 -0.12607 -0.01884
                  z   0.00432 -0.10657 -0.15846  0.01565 -0.15488 -0.00670
 17   c           x  -0.17180  0.02564  0.00264  0.01629 -0.01470  0.21154
                  y  -0.07247  0.03070  0.00264  0.19917  0.01025 -0.00757
                  z   0.00780 -0.10205 -0.15688  0.01442 -0.15442 -0.00611
 18   h           x  -0.12677  0.04033  0.00057  0.02141 -0.02300  0.31854
                  y  -0.07405  0.03203 -0.00139  0.19613  0.01460 -0.01089
                  z   0.00998 -0.13060 -0.09209  0.01488 -0.21926 -0.00784
 19   c           x  -0.14816  0.09694  0.00995  0.01432 -0.00715  0.14163
                  y  -0.07394  0.05941 -0.06717  0.20149  0.08293  0.00104
                  z   0.00818 -0.07887 -0.20289  0.01460 -0.10621 -0.00443
 20   h           x  -0.08452  0.16720  0.01356  0.01851 -0.00989  0.20088
                  y  -0.07667  0.08309 -0.12554  0.20355  0.14554  0.00438
                  z   0.01066 -0.08949 -0.17360  0.01373 -0.13783 -0.00508
 21   c           x  -0.20604  0.07813  0.01261  0.00686  0.00486 -0.01274
                  y  -0.07191  0.05772 -0.06206  0.20229  0.07747  0.00586
                  z   0.00537 -0.04215 -0.28625  0.01389 -0.01833 -0.00224
 22   h           x  -0.18758  0.13372  0.01831  0.00515  0.01116 -0.07168
                  y  -0.07306  0.08010 -0.11647  0.20068  0.13425  0.01279
                  z   0.00567 -0.02410 -0.32205  0.01278  0.01974 -0.00102
 23   c           x  -0.28772 -0.01215  0.00796  0.00155  0.00910 -0.09513
                  y  -0.06840  0.02727  0.01298  0.20426 -0.00160  0.00187
                  z   0.00219 -0.02859 -0.32368  0.01264  0.02105 -0.00172
 24   h           x  -0.33283 -0.02686  0.01003 -0.00437  0.01877 -0.21932
                  y  -0.06682  0.02594  0.01701  0.20448 -0.00625  0.00575
                  z   0.00000  0.00000 -0.38859  0.01183  0.08990 -0.00014

reduced mass(g/mol)     5.873    5.433    5.753    6.442    3.928    3.904


       mode              13       14       15       16       17       18

     frequency         405.13   405.18   406.23   407.26   611.12   611.51

     symmetry            a        a        a        a        a        a   

        IR               YES      YES      YES      YES      YES      YES
|dDIP/dQ|   (a.u.)     0.0000   0.0000   0.0000   0.0003   0.0000   0.0000
intensity (km/mol)       0.00     0.00     0.00     0.13     0.00     0.00
intensity (  %   )       0.00     0.00     0.00     0.10     0.00     0.00
 
       RAMAN             YES      YES      YES      YES      YES      YES
 
  1   h           x  -0.01369  0.00675 -0.01875 -0.00052  0.26468 -0.03051
                  y  -0.28516  0.13558 -0.41951  0.00527 -0.01559  0.02470
                  z  -0.01907  0.00884 -0.02849  0.00060  0.07900 -0.32054
  2   c           x  -0.00625  0.00299 -0.00859 -0.00066 -0.01142 -0.21961
                  y  -0.12934  0.06219 -0.19025  0.00239 -0.01538  0.02477
                  z  -0.00902  0.00417 -0.01315  0.00040  0.23557 -0.21534
  3   c           x  -0.00235  0.00436  0.01053 -0.00086  0.03885 -0.22152
                  y  -0.05058  0.09417  0.21291 -0.00209 -0.01591 -0.00562
                  z  -0.00338  0.00662  0.01483 -0.00041  0.20192  0.24274
  4   h           x  -0.00487  0.00968  0.02322 -0.00102 -0.25784 -0.07595
                  y  -0.11013  0.20797  0.46925 -0.00500  0.01238 -0.01990
                  z  -0.00711  0.01391  0.03183 -0.00062  0.02621  0.32706
  5   c           x   0.00876 -0.00759 -0.00105 -0.00052  0.35370  0.02348
                  y   0.17990 -0.15621 -0.02261 -0.00262 -0.01695 -0.01180
                  z   0.01263 -0.01083 -0.00183 -0.00020 -0.00823  0.15241
  6   h           x   0.02043 -0.01772 -0.00252 -0.00067  0.35227  0.02807
                  y   0.39608 -0.34389 -0.04991 -0.00599 -0.01477  0.01503
                  z   0.02756 -0.02395 -0.00445 -0.00044  0.02056 -0.23211
  7   c           x  -0.00600  0.00296 -0.00946 -0.00074  0.01149  0.21955
                  y  -0.12952  0.06240 -0.19009 -0.00014  0.01613 -0.02638
                  z  -0.00913  0.00455 -0.01347  0.00022 -0.23548  0.21528
  8   h           x  -0.01339  0.00620 -0.02101 -0.00080 -0.26441  0.03060
                  y  -0.28558  0.13603 -0.41917 -0.00077  0.02025 -0.02334
                  z  -0.02087  0.01015 -0.03019  0.00019 -0.07865  0.32069
  9   c           x  -0.00248  0.00467  0.00970 -0.00074 -0.03887  0.22157
                  y  -0.05068  0.09413  0.21292  0.00022  0.01596  0.00744
                  z  -0.00372  0.00661  0.01500 -0.00027 -0.20195 -0.24266
 10   h           x  -0.00562  0.01020  0.02155 -0.00070  0.25795  0.07586
                  y  -0.11037  0.20785  0.46910  0.00057 -0.00800  0.01853
                  z  -0.00831  0.01523  0.03389 -0.00023 -0.02597 -0.32720
 11   c           x   0.00834 -0.00725 -0.00117 -0.00033 -0.35379 -0.02353
                  y   0.17986 -0.15630 -0.02251  0.00229  0.01542  0.01173
                  z   0.01254 -0.01103 -0.00133  0.00013  0.00809 -0.15241
 12   h           x   0.01725 -0.01500 -0.00230 -0.00018 -0.35196 -0.02810
                  y   0.39617 -0.34428 -0.04982  0.00484  0.02128 -0.01468
                  z   0.02774 -0.02409 -0.00257  0.00031 -0.02022  0.23214
 13   h           x  -0.27931 -0.33450  0.07882 -0.27655 -0.00068  0.00130
                  y   0.00959  0.01127 -0.00275  0.00941 -0.03224 -0.00764
                  z  -0.00960 -0.01162  0.00272 -0.00954 -0.00909  0.00042
 14   c           x  -0.12945 -0.15502  0.03644 -0.12775  0.00110  0.00041
                  y   0.00440  0.00523 -0.00130  0.00436  0.00425  0.00262
                  z  -0.00436 -0.00543  0.00125 -0.00439 -0.02734 -0.00472
 15   c           x   0.13394  0.16083 -0.03949 -0.11128  0.00091 -0.00030
                  y  -0.00459 -0.00547  0.00130  0.00382 -0.00184  0.00140
                  z   0.00482  0.00540 -0.00139 -0.00389 -0.02711 -0.00827
 16   h           x   0.28698  0.34438 -0.08316 -0.25094  0.00136  0.00234
                  y  -0.01020 -0.01143  0.00285  0.00851  0.03301  0.00847
                  z   0.00988  0.01200 -0.00287 -0.00881 -0.00361 -0.00334
 17   c           x  -0.00415 -0.00546  0.00246  0.24161 -0.00149 -0.00032
                  y   0.00049 -0.00008 -0.00014 -0.00818 -0.04396 -0.01057
                  z  -0.00016 -0.00025  0.00008  0.00833 -0.00251 -0.00181
 18   h           x  -0.00904 -0.01194  0.00535  0.52635 -0.00094 -0.00023
                  y   0.00056  0.00023 -0.00017 -0.01799 -0.04383 -0.01072
                  z  -0.00033 -0.00039  0.00015  0.01827 -0.00318  0.00116
 19   c           x  -0.12995 -0.15564  0.03711 -0.12385 -0.00121  0.00037
                  y   0.00444  0.00527 -0.00130  0.00424 -0.00441 -0.00270
                  z  -0.00468 -0.00525  0.00129 -0.00428  0.02754  0.00476
 20   h           x  -0.27782 -0.33234  0.07772 -0.27782  0.00130 -0.00147
                  y   0.00901  0.01161 -0.00262  0.00939  0.03248  0.00765
                  z  -0.00956 -0.01152  0.00266 -0.00956  0.00890 -0.00047
 21   c           x   0.13380  0.16065 -0.03896 -0.11527 -0.00084 -0.00046
                  y  -0.00451 -0.00551  0.00126  0.00397  0.00169 -0.00141
                  z   0.00458  0.00561 -0.00136 -0.00399  0.02692  0.00820
 22   h           x   0.28835  0.34627 -0.08419 -0.24952 -0.00082 -0.00179
                  y  -0.00967 -0.01190  0.00281  0.00853 -0.03285 -0.00846
                  z   0.01000  0.01201 -0.00292 -0.00865  0.00388  0.00340
 23   c           x  -0.00424 -0.00553  0.00248  0.24167  0.00137  0.00030
                  y   0.00009  0.00021 -0.00016 -0.00819  0.04369  0.01050
                  z  -0.00013 -0.00021  0.00008  0.00838  0.00250  0.00180
 24   h           x  -0.00896 -0.01168  0.00528  0.51716  0.00151  0.00047
                  y   0.00025  0.00041 -0.00026 -0.01761  0.04342  0.01062
                  z  -0.00026 -0.00040  0.00018  0.01794  0.00319 -0.00103

reduced mass(g/mol)     2.920    2.934    2.889    2.928    6.010    6.012


       mode              19       20       21       22       23       24

     frequency         611.86   612.26   687.96   690.10   716.30   718.30

     symmetry            a        a        a        a        a        a   

        IR               YES      YES      YES      YES      YES      YES
|dDIP/dQ|   (a.u.)     0.0004   0.0001   0.0069   0.0084   0.0003   0.0001
intensity (km/mol)       0.26     0.01    83.85   126.09     0.21     0.01
intensity (  %   )       0.21     0.00    66.50   100.00     0.17     0.01
 
       RAMAN             YES      YES      YES      YES      YES      YES
 
  1   h           x  -0.03122  0.00102 -0.00153  0.01835 -0.00064 -0.01633
                  y   0.02059 -0.00277 -0.01597  0.40490 -0.02114 -0.35135
                  z   0.00149 -0.00289 -0.00029  0.02678 -0.00174 -0.02419
  2   c           x   0.00805 -0.00217 -0.00038 -0.00164 -0.00028 -0.00974
                  y   0.00033  0.00040  0.00049 -0.03442 -0.01039 -0.20400
                  z  -0.02237 -0.00091  0.00043 -0.00240 -0.00098 -0.01448
  3   c           x   0.00143 -0.00165 -0.00032 -0.00174  0.00071  0.00960
                  y   0.00129  0.00012  0.00144 -0.03427  0.01057  0.20417
                  z  -0.03174  0.00303 -0.00036 -0.00228  0.00104  0.01464
  4   h           x   0.03527 -0.00224 -0.00109  0.02001  0.00117  0.01669
                  y   0.01854 -0.00317 -0.00617  0.40544  0.01871  0.35025
                  z  -0.01112  0.00264 -0.00124  0.02696  0.00159  0.02414
  5   c           x  -0.04495  0.00196  0.00033 -0.00185 -0.00051 -0.00937
                  y   0.00229 -0.00019 -0.00135 -0.03461 -0.01006 -0.20357
                  z  -0.00351  0.00139 -0.00011 -0.00236 -0.00070 -0.01427
  6   h           x  -0.04373  0.00193  0.00008  0.02173 -0.00089 -0.01751
                  y   0.02126 -0.00095 -0.00889  0.40490 -0.01656 -0.35277
                  z   0.00566 -0.00203 -0.00062  0.02824 -0.00114 -0.02478
  7   c           x  -0.00816  0.00190 -0.00034 -0.00165  0.00070  0.00971
                  y  -0.00211 -0.00031  0.00133 -0.03432  0.01062  0.20435
                  z   0.02226  0.00068  0.00054 -0.00240  0.00046  0.01401
  8   h           x   0.03303 -0.00083 -0.00104  0.01998  0.00119  0.01679
                  y   0.01758  0.00100 -0.00612  0.40543  0.01887  0.34954
                  z   0.00119  0.00242  0.00032  0.02995  0.00106  0.02486
  9   c           x  -0.00155  0.00192 -0.00039 -0.00156 -0.00028 -0.00973
                  y  -0.00300 -0.00002  0.00052 -0.03446 -0.01041 -0.20434
                  z   0.03163 -0.00328 -0.00034 -0.00254 -0.00048 -0.01414
 10   h           x  -0.03348  0.00188 -0.00160  0.01874 -0.00072 -0.01655
                  y   0.02040  0.00135 -0.01577  0.40500 -0.02114 -0.35101
                  z   0.01385 -0.00314 -0.00195  0.02975 -0.00126 -0.02508
 11   c           x   0.04494 -0.00197  0.00059 -0.00142  0.00042  0.00986
                  y  -0.00243  0.00018  0.00319 -0.03437  0.01027  0.20362
                  z   0.00349 -0.00125  0.00021 -0.00245  0.00071  0.01421
 12   h           x   0.04559 -0.00203  0.00007  0.01684  0.00056  0.01594
                  y   0.01786 -0.00093 -0.01337  0.40532  0.01443  0.35297
                  z  -0.00297  0.00197 -0.00094  0.02823  0.00102  0.02467
 13   h           x  -0.00582  0.01064  0.41464  0.01125 -0.30535  0.00551
                  y  -0.26090 -0.01756 -0.01418  0.00309  0.01044 -0.00022
                  z  -0.08611 -0.32464  0.01437  0.00118 -0.01055  0.00019
 14   c           x   0.00879  0.00094 -0.03205 -0.00115 -0.21995  0.01116
                  y   0.02598 -0.20785  0.00108  0.00050  0.00748 -0.00038
                  z  -0.22973 -0.23177 -0.00114  0.00233 -0.00756  0.00037
 15   c           x   0.00644 -0.01589 -0.03732 -0.00093  0.21193 -0.00953
                  y  -0.02442 -0.23423  0.00126  0.00076 -0.00724  0.00032
                  z  -0.20873  0.22750 -0.00130  0.00211  0.00743 -0.00034
 16   h           x   0.01001 -0.01415  0.40150  0.01119  0.38116 -0.02488
                  y   0.26106 -0.08835 -0.01370 -0.00047 -0.01300  0.00094
                  z  -0.01692  0.32286  0.01398  0.00213  0.01334 -0.00081
 17   c           x  -0.01170 -0.00492 -0.02715 -0.00068 -0.21360  0.01031
                  y  -0.35431  0.00960  0.00092  0.00227  0.00726 -0.00037
                  z  -0.01420  0.15374 -0.00094  0.00011 -0.00737  0.00036
 18   h           x  -0.01041  0.00901  0.39693  0.01026 -0.35761  0.01023
                  y  -0.35129  0.03325 -0.01362  0.00041  0.01224 -0.00034
                  z  -0.03475 -0.22917  0.01377  0.00034 -0.01247  0.00022
 19   c           x  -0.00901 -0.00094 -0.03727 -0.00075  0.21210 -0.00955
                  y  -0.02779  0.20848  0.00126  0.00098 -0.00720  0.00030
                  z   0.23012  0.23185 -0.00128 -0.00207  0.00729 -0.00029
 20   h           x   0.00663 -0.01074  0.40128  0.01132  0.37930 -0.02480
                  y   0.26081  0.02020 -0.01367 -0.00026 -0.01279  0.00078
                  z   0.08465  0.32416  0.01390 -0.00138  0.01302 -0.00080
 21   c           x  -0.00649  0.01588 -0.03203 -0.00097 -0.22008  0.01115
                  y   0.02257  0.23379  0.00109  0.00074  0.00749 -0.00040
                  z   0.20809 -0.22744 -0.00110 -0.00230 -0.00769  0.00042
 22   h           x  -0.00937  0.01399  0.41450  0.01130 -0.30310  0.00540
                  y  -0.26184  0.08610 -0.01415  0.00313  0.01033 -0.00023
                  z   0.01817 -0.32366  0.01437  0.00008 -0.01056  0.00021
 23   c           x   0.01158  0.00499 -0.03772 -0.00097  0.21782 -0.00931
                  y   0.35210 -0.00955  0.00130 -0.00301 -0.00746  0.00034
                  z   0.01405 -0.15357 -0.00131 -0.00022  0.00751 -0.00031
 24   h           x   0.01106 -0.00922  0.40774  0.01152  0.33614 -0.02486
                  y   0.34907 -0.03331 -0.01392 -0.00349 -0.01150  0.00087
                  z   0.03464  0.23205  0.01415  0.00017  0.01160 -0.00086

reduced mass(g/mol)     5.990    6.016    1.085    1.087    4.101    3.782


       mode              25       26       27       28       29       30

     frequency         863.29   863.74   867.71   868.02   959.67   969.59

     symmetry            a        a        a        a        a        a   

        IR               YES      YES      YES      YES      YES      YES
|dDIP/dQ|   (a.u.)     0.0007   0.0000   0.0006   0.0006   0.0000   0.0003
intensity (km/mol)       0.81     0.00     0.56     0.60     0.00     0.18
intensity (  %   )       0.65     0.00     0.44     0.48     0.00     0.14
 
       RAMAN             YES      YES      YES      YES      YES      YES
 
  1   h           x   0.00622  0.00019 -0.02179  0.01259  0.00114  0.00231
                  y   0.09809 -0.00207 -0.48253  0.28428  0.01857 -0.00284
                  z   0.00477 -0.00062 -0.03203  0.01890  0.00086 -0.00237
  2   c           x  -0.00016 -0.00010  0.00333 -0.00217 -0.00019  0.00044
                  y  -0.01496  0.00006  0.07250 -0.04237 -0.00356  0.00042
                  z  -0.00190 -0.00016  0.00488 -0.00291 -0.00033 -0.00095
  3   c           x   0.00120 -0.00007  0.00368  0.00161  0.00014  0.00037
                  y   0.01420  0.00067  0.07552  0.03710  0.00337 -0.00021
                  z   0.00189  0.00020  0.00522  0.00251  0.00033  0.00104
  4   h           x  -0.00283  0.00023 -0.02473 -0.01250 -0.00050  0.00245
                  y  -0.09366 -0.00280 -0.50266 -0.24881 -0.01755  0.00116
                  z  -0.00437  0.00036 -0.03309 -0.01652 -0.00073  0.00239
  5   c           x   0.00058 -0.00003  0.00011  0.00469  0.00002 -0.00110
                  y   0.02888 -0.00092  0.00312  0.08072  0.00020 -0.00043
                  z   0.00204 -0.00007 -0.00017  0.00568 -0.00007 -0.00003
  6   h           x  -0.01138  0.00036 -0.00115 -0.02831 -0.00004 -0.00104
                  y  -0.19093  0.00626 -0.02041 -0.53569 -0.00103  0.00315
                  z  -0.01331 -0.00075 -0.00280 -0.03732 -0.00120  0.00027
  7   c           x   0.00124  0.00000 -0.00359  0.00187 -0.00015  0.00036
                  y   0.01511 -0.00170 -0.07251  0.04242 -0.00357 -0.00015
                  z   0.00016  0.00008 -0.00523  0.00304 -0.00016 -0.00107
  8   h           x  -0.00317  0.00013  0.02384 -0.01428  0.00063  0.00244
                  y  -0.09847  0.00933  0.48209 -0.28422  0.01854  0.00197
                  z  -0.00900  0.00124  0.03550 -0.02089  0.00175 -0.00211
  9   c           x  -0.00010  0.00011 -0.00346 -0.00191  0.00016  0.00046
                  y  -0.01430  0.00091 -0.07548 -0.03708  0.00344  0.00035
                  z  -0.00018 -0.00013 -0.00535 -0.00268  0.00015  0.00099
 10   h           x   0.00615 -0.00066  0.02344  0.01133 -0.00129  0.00229
                  y   0.09267 -0.00412  0.50206  0.24892 -0.01788 -0.00347
                  z   0.00860 -0.00093  0.03726  0.01832 -0.00179  0.00196
 11   c           x  -0.00213  0.00007 -0.00008 -0.00298  0.00001 -0.00099
[...]
                  z   0.12800  0.10895  0.03423  0.00003  0.01124  0.10926
 22   h           x  -0.00185 -0.00145 -0.00372 -0.00001 -0.00110 -0.00704
                  y  -0.16985 -0.13834 -0.33807 -0.00024  0.14569 -0.41526
                  z  -0.11246 -0.09193 -0.22495 -0.00016  0.17467 -0.20537
 23   c           x   0.00851  0.00732 -0.00215 -0.00000  0.00391 -0.00277
                  y   0.01437  0.01235 -0.00368 -0.00000  0.01157 -0.09176
                  z  -0.23221 -0.19960  0.05853  0.00004 -0.10161 -0.01003
 24   h           x  -0.00787 -0.00705  0.01484  0.00001 -0.01371 -0.00419
                  y  -0.01327 -0.01184  0.02489  0.00001 -0.01697 -0.11320
                  z   0.21435  0.19129 -0.40330 -0.00027  0.37834  0.00893

reduced mass(g/mol)     7.110    7.146    1.248    1.248    1.994    2.007


       mode              55       56       57       58       59       60

     frequency        1515.64  1517.04  1634.31  1634.54  1634.92  1635.32

     symmetry            a        a        a        a        a        a   

        IR               YES      YES      YES      YES      YES      YES
|dDIP/dQ|   (a.u.)     0.0021   0.0003   0.0001   0.0001   0.0006   0.0005
intensity (km/mol)       7.70     0.18     0.01     0.01     0.67     0.50
intensity (  %   )       6.10     0.14     0.01     0.01     0.53     0.40
 
       RAMAN             YES      YES      YES      YES      YES      YES
 
  1   h           x  -0.42784  0.13265 -0.10354  0.35500 -0.05977  0.00322
                  y   0.00796  0.00432 -0.01019 -0.00873 -0.00012 -0.00148
                  z   0.17394 -0.15259  0.22305 -0.10799  0.04229  0.00133
  2   c           x   0.08473 -0.07254  0.19889 -0.21018  0.05270 -0.00106
                  y   0.00318  0.00492 -0.01206 -0.00432 -0.00095  0.00001
                  z  -0.10305 -0.02283  0.03644  0.20185 -0.02217  0.00369
  3   c           x   0.08867  0.07247 -0.27702  0.07770 -0.04472 -0.00110
                  y  -0.01136 -0.00199  0.02498  0.00525  0.00236  0.00040
                  z   0.10242 -0.02232 -0.16756 -0.12563 -0.00376 -0.00175
  4   h           x  -0.43514 -0.12586  0.36040  0.08020  0.03357  0.00357
                  y   0.03439  0.01658 -0.03177  0.00544 -0.00466 -0.00153
                  z  -0.19554 -0.15361  0.20801 -0.14255  0.04505  0.00068
  5   c           x  -0.09167 -0.00091  0.12431 -0.07838  0.02555 -0.00068
                  y   0.00427 -0.00713 -0.01780 -0.01576 -0.00020 -0.00014
                  z   0.00407  0.10252  0.16990  0.27834 -0.01622  0.00259
  6   h           x  -0.11151  0.00499  0.14277 -0.07884  0.02764 -0.00070
                  y   0.00688  0.02613  0.00806  0.02905 -0.00246  0.00005
                  z  -0.01859 -0.37750 -0.21611 -0.35977  0.02153 -0.00076
  7   c           x   0.08462 -0.07259 -0.19900  0.21014 -0.05258  0.00359
                  y   0.00324  0.00516  0.01196  0.00401  0.00092 -0.00021
                  z  -0.10307 -0.02282 -0.03633 -0.20191  0.02227 -0.00244
  8   h           x  -0.42755  0.13273  0.10401 -0.35478  0.05973 -0.00611
                  y   0.00822  0.00448  0.01108  0.00977  0.00026  0.00128
                  z   0.17372 -0.15267 -0.22317  0.10792 -0.04207  0.00302
  9   c           x   0.08878  0.07252  0.27686 -0.07768  0.04453 -0.00135
                  y  -0.01147 -0.00178 -0.02481 -0.00496 -0.00242 -0.00038
                  z   0.10246 -0.02229  0.16739  0.12558  0.00378  0.00311
 10   h           x  -0.43519 -0.12592 -0.35993 -0.08021 -0.03331 -0.00127
                  y   0.03462  0.01698  0.03180 -0.00688  0.00495  0.00113
                  z  -0.19560 -0.15365 -0.20785  0.14239 -0.04474  0.00351
 11   c           x  -0.09174 -0.00093 -0.12414  0.07838 -0.02552  0.00065
                  y   0.00391 -0.00710  0.01776  0.01571 -0.00003  0.00044
                  z   0.00391  0.10249 -0.16982 -0.27819  0.01596 -0.00673
 12   h           x  -0.11160  0.00496 -0.14256  0.07886 -0.02756  0.00048
                  y   0.00627  0.02605 -0.00857 -0.02860  0.00310 -0.00082
                  z  -0.01830 -0.37735  0.21603  0.35951 -0.02088  0.01124
 13   h           x   0.00017 -0.01001  0.00213 -0.00237 -0.01735  0.00825
                  y   0.00283 -0.14313  0.03241 -0.03982 -0.27172  0.26464
                  z  -0.00469  0.14781 -0.02873  0.03054  0.23325  0.02240
 14   c           x   0.00007  0.00151 -0.00133  0.00164  0.01117 -0.01009
                  y  -0.00219  0.07179 -0.03383  0.03836  0.27834 -0.10279
                  z  -0.00160  0.02723  0.00536 -0.00931 -0.04926  0.19068
 15   c           x   0.00018 -0.00316  0.00068 -0.00085 -0.00582  0.00497
                  y   0.00330 -0.07407  0.03407 -0.03580 -0.27681 -0.05160
                  z  -0.00006  0.01830  0.01344 -0.01092 -0.10366 -0.19416
 16   h           x  -0.00045 -0.00163 -0.00001 -0.00016 -0.00028  0.00864
                  y  -0.00688  0.11449 -0.03281  0.03103  0.26241  0.23724
                  z  -0.00736  0.15892 -0.03232  0.03512  0.26476 -0.01718
 17   c           x  -0.00088  0.00370 -0.00046  0.00073  0.00409 -0.01231
                  y  -0.00075  0.00486 -0.01775  0.01969  0.14616 -0.02762
                  z   0.00386 -0.10211 -0.00427 -0.00135  0.02544  0.32849
 18   h           x   0.00855 -0.01456 -0.00069  0.00044  0.00612  0.01544
                  y   0.00004 -0.02620 -0.02020  0.02163  0.16670  0.01833
                  z  -0.01445  0.39444  0.00255  0.00448 -0.01040 -0.42624
 19   c           x   0.00005  0.00169  0.00135 -0.00162 -0.01119  0.01013
                  y  -0.00224  0.07414  0.03369 -0.03835 -0.27879  0.10299
                  z  -0.00157  0.02442 -0.00541  0.00934  0.04952 -0.19191
 20   h           x  -0.00020 -0.01005 -0.00207  0.00241  0.01720 -0.00805
                  y   0.00286 -0.14638 -0.03161  0.03914  0.26895 -0.26121
                  z  -0.00471  0.14797  0.02853 -0.03049 -0.23346 -0.02385
 21   c           x   0.00021 -0.00320 -0.00070  0.00083  0.00582 -0.00492
                  y   0.00330 -0.07214 -0.03412  0.03589  0.27638  0.05161
                  z  -0.00009  0.02134 -0.01341  0.01090  0.10329  0.19297
 22   h           x  -0.00006 -0.00171 -0.00001  0.00009  0.00017 -0.00870
                  y  -0.00696  0.11087  0.03344 -0.03170 -0.26536 -0.24035
                  z  -0.00743  0.15813  0.03242 -0.03534 -0.26496  0.01524
 23   c           x  -0.00018  0.00383  0.00045 -0.00071 -0.00405  0.01218
                  y  -0.00077  0.00511  0.01776 -0.01964 -0.14496  0.02732
                  z   0.00394 -0.10558  0.00431  0.00137 -0.02526 -0.32494
 24   h           x   0.00037 -0.01403  0.00079 -0.00056 -0.00594 -0.01501
                  y   0.00026 -0.02523  0.02005 -0.02128 -0.16226 -0.01774
                  z  -0.01458  0.37966 -0.00287 -0.00468  0.01045  0.41534

reduced mass(g/mol)     1.993    1.992    5.274    5.276    5.309    5.302


       mode              61       62       63       64       65       66

     frequency        3153.61  3157.25  3161.41  3166.47  3167.74  3168.21

     symmetry            a        a        a        a        a        a   

        IR               YES      YES      YES      YES      YES      YES
|dDIP/dQ|   (a.u.)     0.0012   0.0002   0.0004   0.0000   0.0006   0.0032
intensity (km/mol)       2.41     0.06     0.22     0.00     0.67    18.28
intensity (  %   )       1.91     0.05     0.18     0.00     0.53    14.50
 
       RAMAN             YES      YES      YES      YES      YES      YES
 
  1   h           x  -0.00020 -0.20334  0.00251  0.23814 -0.15268 -0.02825
                  y   0.00003  0.03324 -0.00030 -0.03904  0.02469  0.00453
                  z  -0.00035 -0.36119  0.00440  0.42509 -0.26706 -0.04939
  2   c           x   0.00001  0.01686 -0.00025 -0.01953  0.01422  0.00263
                  y   0.00001 -0.00279  0.00003  0.00333 -0.00213 -0.00036
                  z   0.00003  0.03012 -0.00040 -0.03660  0.02214  0.00411
  3   c           x   0.00001  0.01760  0.00028 -0.02130 -0.01361 -0.00264
                  y   0.00001  0.00113  0.00001 -0.00145 -0.00066 -0.00010
                  z   0.00001 -0.02985 -0.00044  0.03757  0.01989  0.00392
  4   h           x   0.00003 -0.21213 -0.00288  0.25781  0.14530  0.02844
                  y  -0.00000 -0.01331 -0.00007  0.01627  0.00885  0.00170
                  z  -0.00005  0.35789  0.00483 -0.43672 -0.24108 -0.04722
  5   c           x  -0.00024 -0.03192  0.00002  0.00142  0.04698  0.00822
                  y   0.00003  0.00171 -0.00001  0.00005 -0.00254 -0.00041
                  z  -0.00000 -0.00026  0.00005 -0.00177  0.00045  0.00008
  6   h           x   0.00286  0.38515 -0.00027 -0.01652 -0.55262 -0.09682
                  y  -0.00020 -0.02088  0.00002  0.00074  0.03001  0.00515
                  z   0.00002  0.00322 -0.00004  0.00212 -0.00470 -0.00082
  7   c           x   0.00001  0.01679 -0.00027  0.01946 -0.01434 -0.00263
                  y   0.00001 -0.00302  0.00005 -0.00363  0.00234  0.00046
                  z  -0.00001  0.03001 -0.00043  0.03648 -0.02238 -0.00413
  8   h           x   0.00004 -0.20253  0.00275 -0.23729  0.15420  0.02835
                  y  -0.00001  0.03643 -0.00060  0.04286 -0.02743 -0.00507
                  z   0.00006 -0.35981  0.00482 -0.42362  0.26981  0.04958
  9   c           x   0.00000  0.01771  0.00026  0.02135  0.01349  0.00261
                  y   0.00002  0.00137  0.00002  0.00177  0.00081  0.00019
                  z  -0.00002 -0.02998 -0.00041 -0.03761 -0.01964 -0.00385
 10   h           x  -0.00010 -0.21334 -0.00270 -0.25841 -0.14382 -0.02803
                  y  -0.00001 -0.01656 -0.00031 -0.02022 -0.01087 -0.00215
                  z   0.00017  0.35942  0.00448  0.43712  0.23823  0.04646
 11   c           x   0.00023 -0.03222  0.00001 -0.00138 -0.04699 -0.00818
                  y   0.00001  0.00138 -0.00000 -0.00007  0.00200  0.00039
                  z   0.00000 -0.00029  0.00005  0.00177 -0.00048 -0.00008
 12   h           x  -0.00276  0.38874 -0.00006  0.01599  0.55259  0.09638
                  y   0.00007 -0.01640  0.00000 -0.00051 -0.02327 -0.00417
                  z  -0.00003  0.00357 -0.00004 -0.00213  0.00516  0.00088
 13   h           x  -0.00775  0.00000 -0.00798 -0.00002 -0.00023  0.00113
                  y   0.21795 -0.00005  0.22176  0.00030  0.00785 -0.03967
                  z   0.43767 -0.00010  0.44791  0.00059  0.01433 -0.07144
 14   c           x   0.00064 -0.00000  0.00071  0.00001  0.00000  0.00001
                  y  -0.01829  0.00000 -0.01817 -0.00003 -0.00104  0.00545
                  z  -0.03647  0.00001 -0.03841 -0.00005 -0.00105  0.00508
 15   c           x  -0.00134 -0.00000 -0.00201  0.00001  0.00038 -0.00216
                  y  -0.01501  0.00000 -0.02265  0.00007  0.00447 -0.02505
                  z   0.02384 -0.00000  0.03556 -0.00010 -0.00668  0.03753
 16   h           x   0.01617  0.00009  0.02376 -0.00024 -0.00445  0.02497
                  y   0.18655  0.00000  0.27438 -0.00077 -0.05169  0.28895
                  z  -0.28185  0.00001 -0.41372  0.00114  0.07747 -0.43424
 17   c           x   0.00030  0.00000  0.00006 -0.00000 -0.00011  0.00062
                  y   0.00944  0.00000 -0.00001 -0.00005 -0.00340  0.01936
                  z   0.00060  0.00000 -0.00162 -0.00000 -0.00022  0.00123
 18   h           x  -0.00401  0.00000 -0.00003  0.00002  0.00139 -0.00795
                  y  -0.12458 -0.00001  0.00116  0.00068  0.04347 -0.24668
                  z  -0.00789  0.00000  0.00215  0.00003  0.00275 -0.01561
 19   c           x   0.00048 -0.00000 -0.00070 -0.00001 -0.00012  0.00071
                  y  -0.01204 -0.00000  0.01816  0.00006  0.00361 -0.02023
                  z  -0.02571 -0.00000  0.03824  0.00012  0.00717 -0.04034
 20   h           x  -0.00540  0.00009  0.00788  0.00020  0.00145 -0.00821
                  y   0.15133 -0.00001 -0.22194 -0.00074 -0.04164  0.23289
                  z   0.30504  0.00001 -0.44631 -0.00143 -0.08315  0.46657
 21   c           x  -0.00195 -0.00000  0.00201 -0.00000 -0.00007  0.00038
                  y  -0.02271  0.00001  0.02263 -0.00001 -0.00121  0.00626
                  z   0.03399 -0.00001 -0.03566 -0.00000  0.00099 -0.00470
 22   h           x   0.02339 -0.00001 -0.02370  0.00001  0.00084 -0.00416
                  y   0.27102 -0.00008 -0.27381  0.00003  0.01016 -0.05082
                  z  -0.40815  0.00013  0.41445 -0.00002 -0.01415  0.06990
 23   c           x   0.00137  0.00000 -0.00006  0.00001  0.00029 -0.00161
                  y   0.04288 -0.00002  0.00010  0.00016  0.00916 -0.05037
                  z   0.00270 -0.00000  0.00174  0.00001  0.00057 -0.00316
 24   h           x  -0.01650  0.00001  0.00000 -0.00006 -0.00339  0.01864
                  y  -0.51574  0.00018 -0.00228 -0.00185 -0.10604  0.58285
                  z  -0.03251  0.00001 -0.00238 -0.00012 -0.00668  0.03673

reduced mass(g/mol)     1.084    1.084    1.087    1.087    1.087    1.089


       mode              67       68       69       70       71       72

     frequency        3178.10  3182.59  3183.77  3185.15  3193.08  3202.91

     symmetry            a        a        a        a        a        a   

        IR               YES      YES      YES      YES      YES      YES
|dDIP/dQ|   (a.u.)     0.0046   0.0045   0.0043   0.0028   0.0004   0.0002
intensity (km/mol)      37.89    35.88    33.20    14.14     0.29     0.05
intensity (  %   )      30.05    28.45    26.33    11.21     0.23     0.04
 
       RAMAN             YES      YES      YES      YES      YES      YES
 
  1   h           x  -0.01303 -0.24152  0.13851  0.00397 -0.19296  0.02209
                  y   0.00200  0.03910 -0.02314 -0.00052  0.03146 -0.00402
                  z  -0.02286 -0.42357  0.25403  0.00703 -0.34259  0.03928
  2   c           x   0.00124  0.02283 -0.01021 -0.00037  0.01762 -0.00202
                  y  -0.00018 -0.00351  0.00206  0.00002 -0.00289  0.00046
                  z   0.00201  0.03695 -0.02389 -0.00065  0.03137 -0.00363
  3   c           x  -0.00130 -0.02427 -0.00918  0.00044 -0.01835  0.00210
                  y  -0.00007 -0.00133 -0.00097 -0.00001 -0.00116  0.00027
                  z   0.00203  0.03783  0.02122 -0.00076  0.03106 -0.00356
  4   h           x   0.01381  0.25932  0.12750 -0.00487  0.20100 -0.02286
                  y   0.00074  0.01593  0.00850 -0.00018  0.01253 -0.00183
                  z  -0.02305 -0.43276 -0.22309  0.00826 -0.33900  0.03853
  5   c           x  -0.00007 -0.00157 -0.05217  0.00102 -0.03861  0.00433
                  y   0.00002  0.00032  0.00279 -0.00009  0.00207 -0.00012
                  z  -0.00019 -0.00332 -0.00034  0.00000 -0.00032  0.00005
  6   h           x   0.00082  0.01810  0.58676 -0.01119  0.42357 -0.04704
                  y  -0.00006 -0.00131 -0.03181  0.00076 -0.02301  0.00210
                  z   0.00024  0.00488  0.00477 -0.00008  0.00354 -0.00043
  7   c           x   0.00123  0.02287 -0.01003  0.00047 -0.01766  0.00199
                  y  -0.00021 -0.00383  0.00222 -0.00012  0.00318 -0.00024
                  z   0.00198  0.03702 -0.02359  0.00085 -0.03149  0.00357
  8   h           x  -0.01288 -0.24197  0.13659 -0.00519  0.19357 -0.02172
                  y   0.00241  0.04314 -0.02519  0.00106 -0.03488  0.00350
                  z  -0.02261 -0.42440  0.25065 -0.00923  0.34375 -0.03860
  9   c           x  -0.00131 -0.02425 -0.00935 -0.00043  0.01830 -0.00206
                  y  -0.00009 -0.00164 -0.00114 -0.00007  0.00142 -0.00003
                  z   0.00203  0.03774  0.02146  0.00070 -0.03089  0.00355
 10   h           x   0.01385  0.25905  0.12930  0.00462 -0.20024  0.02262
                  y   0.00116  0.01980  0.01065  0.00048 -0.01561  0.00136
                  z  -0.02307 -0.43169 -0.22580 -0.00773  0.33720 -0.03822
 11   c           x  -0.00007 -0.00160 -0.05230 -0.00073  0.03828 -0.00436
                  y   0.00002  0.00030  0.00223 -0.00001 -0.00163  0.00030
                  z  -0.00019 -0.00332 -0.00038 -0.00001  0.00035 -0.00002
 12   h           x   0.00080  0.01840  0.58809  0.00793 -0.41991  0.04744
                  y  -0.00005 -0.00111 -0.02478 -0.00018  0.01766 -0.00246
                  z   0.00024  0.00489  0.00528  0.00009 -0.00387  0.00039
 13   h           x  -0.00776  0.00033 -0.00005 -0.00792 -0.00031 -0.00121
                  y   0.22328 -0.00975  0.00062  0.21756  0.00888  0.03682
                  z   0.44298 -0.01919  0.00127  0.44195  0.01770  0.07120
 14   c           x   0.00062 -0.00003  0.00001  0.00078  0.00003  0.00008
                  y  -0.02118  0.00094 -0.00005 -0.01847 -0.00091 -0.00436
                  z  -0.03878  0.00167 -0.00012 -0.04057 -0.00164 -0.00653
 15   c           x   0.00213 -0.00014  0.00001  0.00091  0.00016  0.00104
                  y   0.02595 -0.00163  0.00003  0.01218  0.00164  0.01031
                  z  -0.03591  0.00233 -0.00002 -0.01424 -0.00291 -0.01988
 16   h           x  -0.02386  0.00152 -0.00017 -0.00989 -0.00173 -0.01122
                  y  -0.27814  0.01761 -0.00021 -0.11672 -0.01974 -0.12773
                  z   0.41306 -0.02661  0.00030  0.16966  0.03016  0.19729
 17   c           x  -0.00011  0.00001  0.00001 -0.00063  0.00028  0.00260
                  y  -0.00009  0.00006 -0.00011 -0.01965  0.00871  0.08119
                  z   0.00319 -0.00020 -0.00001 -0.00123  0.00055  0.00513
 18   h           x   0.00014 -0.00003 -0.00011  0.00761 -0.00309 -0.02963
                  y  -0.00080 -0.00062  0.00127  0.23642 -0.09666 -0.92032
                  z  -0.00482  0.00034  0.00007  0.01494 -0.00610 -0.05818
 19   c           x   0.00062 -0.00004  0.00001 -0.00019 -0.00006 -0.00047
                  y  -0.02126  0.00133  0.00001  0.01022  0.00128  0.00785
                  z  -0.03872  0.00253  0.00000  0.01545  0.00311  0.02117
 20   h           x  -0.00769  0.00051 -0.00015  0.00306  0.00058  0.00386
                  y   0.22412 -0.01426 -0.00002 -0.09370 -0.01602 -0.10336
                  z   0.44284 -0.02879 -0.00003 -0.18066 -0.03268 -0.21352
 21   c           x   0.00213 -0.00009 -0.00000 -0.00210 -0.00009 -0.00038
                  y   0.02587 -0.00111 -0.00005 -0.02323 -0.00111 -0.00516
                  z  -0.03598  0.00148  0.00009  0.03781  0.00152  0.00596
 22   h           x  -0.02378  0.00099  0.00003  0.02339  0.00095  0.00385
                  y  -0.27723  0.01165  0.00066  0.26932  0.01105  0.04554
                  z   0.41319 -0.01723 -0.00101 -0.40968 -0.01653 -0.06635
 23   c           x  -0.00011  0.00001 -0.00001 -0.00175 -0.00005 -0.00018
                  y   0.00001  0.00006 -0.00016 -0.05468 -0.00170 -0.00580
                  z   0.00333 -0.00016 -0.00001 -0.00344 -0.00011 -0.00037
 24   h           x   0.00010 -0.00002  0.00004  0.01935  0.00059  0.00197
                  y  -0.00209 -0.00056  0.00176  0.60485  0.01839  0.06152
                  z  -0.00497  0.00014  0.00011  0.03812  0.00116  0.00388

reduced mass(g/mol)     1.095    1.095    1.095    1.097    1.099    1.095
 

         **************************************************************
         *                                                            *
         *  zero point VIBRATIONAL energy  :      0.2005939  Hartree  *
         *    SCF-energy                   :   -464.7294552           *
         *    SCF + E(vib0)                :   -464.5288613           *
         *                                                            *
         **************************************************************




 time elapsed for vibrational analysis     1.38 sec


    ------------------------------------------------------------------------
         total  cpu-time : 12 hours  9 minutes and 35 seconds
         total wall-time :  1 hours 32 minutes and 42 seconds
    ------------------------------------------------------------------------

   ****  force : all done  ****


    2020-06-19 12:09:42.850 

