           Doing BLAS/Lapack in the master proc. with 16 CPUs.
           SMPCPUS    set: Shared-memory Parallelization with  28 CPUs.

           SMP Parallelization Reference:
           C. van Wullen, J. Comput. Chem. 32 (2011) 1195--1201

 force (c-19-411) : TURBOMOLE V7.2 ( 21454 ) 4 Oct 2017 at 12:48:15
 Copyright (C) 2017 TURBOMOLE GmbH, Karlsruhe


    2020-06-22 19:37:34.329 



                             T U R B O M O L E   

                          a o f o r c e - program

                        using direct algorithms for

                       SCF level calculations of
                         * harmonic force constants
                         * hyperpolarizabilities
                         * IR and RAMAN intensities
                         * VCD intensities

                       DFT level calculations of
                         * harmonic force constants
                         * IR intensities
                                                   
       Stephan Boecker, Peter Deglmann, Filipp Furche and Marco Haeser
                          Quantum Chemistry Group
                          Universitaet  Karlsruhe
                                   Germany

 
 
 
 
     References :
 
       RI-J implementation:
         Peter Deglmann, Klaus May, Filipp Furche, Reinhart Ahlrichs
                 Chem. Phys. Lett. 384:103 (2004)
 
       Efficiency, technical details:
         Peter Deglmann, Filipp Furche, Reinhart Ahlrichs
                 Chem. Phys. Lett. 362:511 (2002)
 
       Search of lowest eigenvalues by iterative diagonalization:
         Peter Deglmann, Filipp Furche
                 J. Chem. Phys. 117:9535 (2002)
 
       Vibrational circular dichroism implementation:
        Kevin Reiter, Michael Kuehn, Florian Weigend
                 J. Chem. Phys. 146:054102 (2017)  
 
 


              +--------------------------------------------------+
              | Atomic coordinate, charge and isotop information |
              +--------------------------------------------------+

                    atomic coordinates            atom    charge  isotop
          1.93461216   -4.78917353    4.13905535    h      1.000     0
          0.99086870   -4.74004495    2.32197741    c      6.000     0
         -1.59609382   -4.28045590    2.19609546    c      6.000     0
         -2.66565408   -3.97020972    3.91490574    h      1.000     0
         -2.80630564   -4.20567790   -0.13834918    c      6.000     0
         -4.82070748   -3.84587948   -0.23626197    h      1.000     0
         -1.42941363   -4.58322902   -2.34798598    c      6.000     0
         -2.36970171   -4.51235072   -4.16620465    h      1.000     0
          1.15818075   -5.04302045   -2.22236058    c      6.000     0
          2.23169540   -5.33085418   -3.94286698    h      1.000     0
          2.36778211   -5.12363241    0.11301121    c      6.000     0
          4.38317292   -5.47695262    0.21062889    h      1.000     0
          3.89091678    7.53657931    0.40977984    h      1.000     0
          2.28299819    6.27860858    0.23587005    c      6.000     0
          2.65891562    3.68582784   -0.00787391    c      6.000     0
          4.56074305    2.92336078   -0.02329645    h      1.000     0
          0.59663110    2.06837775   -0.23099366    c      6.000     0
          0.88482568    0.05142374   -0.41675776    h      1.000     0
         -1.84412104    3.04869722   -0.20954207    c      6.000     0
         -3.44634900    1.78443200   -0.38122463    h      1.000     0
         -2.22352916    5.64041476    0.03340364    c      6.000     0
         -4.12563337    6.40209142    0.04974935    h      1.000     0
         -0.15912313    7.25656723    0.25640149    c      6.000     0
         -0.45317972    9.27529139    0.44599524    h      1.000     0
 
       center of nuclear mass  :   -0.00021620    0.00049516   -0.00000402
       center of nuclear charge:   -0.00017285    0.00074232    0.00001697

              +--------------------------------------------------+
              |               basis set information              |
              +--------------------------------------------------+

              we will work with the 1s 3p 5d 7f 9g ... basis set
              ...i.e. with spherical basis functions...

   type   atoms  prim   cont   basis
   ---------------------------------------------------------------------------
    h       12      8      6   def2-TZVP   [3s1p|5s1p]
    c       12     46     31   def2-TZVP   [5s3p2d1f|11s6p2d1f]
   ---------------------------------------------------------------------------
   total:   24    648    444
   ---------------------------------------------------------------------------

   total number of primitive shells          :   26
   total number of contracted shells         :  180
   total number of cartesian basis functions :  504
   total number of SCF-basis functions       :  444

 
             FOUND RI-J FLAG !
 

 NOTE: THIS IS A PRELIMINARY IMPLEMENTATION. THE RI APPROXIMATION IS
       PRESENTLY USED FOR CPKS CONTRIBUTIONS TO THE HESSIAN ONLY! SEE
       MANUAL FOR FURTHER DETAILS.

  
 AUXILIARY BASIS SET information:

              we will work with the 1s 3p 5d 7f 9g ... basis set
              ...i.e. with spherical basis functions...

   type   atoms  prim   cont   basis
   ---------------------------------------------------------------------------
    h       12     16     11   def2-TZVP   [3s1p1d|5s2p1d]
    c       12     70     49   def2-TZVP   [6s4p3d1f1g|12s5p4d2f1g]
   ---------------------------------------------------------------------------
   total:   24   1032    720
   ---------------------------------------------------------------------------

   total number of primitive shells          :   32
   total number of contracted shells         :  240
   total number of cartesian basis functions :  876
   total number of SCF-basis functions       :  720


 symmetry group of the molecule :   c1 

 the group has the following generators :
   c1(z)

    1 symmetry operations found

 there are 1 real representations :   a   

 maximum number of shells which are related by symmetry :  1


 determining totally symmetric integral contributions 
    - equivalent to irreducible tensor elements - 
 which can be formed within each triple of representations :

             representation triple      contributions

              a     a     a               1

    mo occupation :
   irrep   mo's   occupied
    a      444       42
 
 number of basis functions   :                    444
 number of occupied orbitals :                     42
 
  MOs are in ASCII format !


 reading orbital data $scfmo  from file mos
 orbital characterization : scfconv=7
 time elapsed for calculating density matrices :   0.267 sec

 number of non-frozen orbitals          :   444
 number of non-frozen occupied orbitals :    42
 Blocking parameters 
 shells:
    index      start shell   last shell  start bf    last bf    #bf 
       1             1         180             1        504    504
  
           ----------------------
               RI - INFORMATION
           ----------------------

 biggest AO integral is expected to be     5.725698708

 Threshold for integral neglect (rithr2):   0.50E-11
 Threshold for integral neglect (rithr1):   0.50E-11

 Contributions to RI integral batches: 
  neglected integral batches:                  3066
  direct contribution:                            0
  memory contribution:                 13224
 Core memory available (ricore):             55000 MiB
 Core memory needed for (P|Q) and Cholesky:      4 MiB
 Core memory used for integrals:               693 MiB
 
 ****************************************
 Memory allocated for RIDFT: 697 MiB
 ****************************************
 
  
           ------------------
           density functional
           ------------------
 TPSS global hybrid functional
 exchange:    9/10 (LDA+TPSS) + 1/10 HF
 correlation: LDA (PW) + TPSS

 spherical integration : Lebedev's spherical grid
 spherical gridsize    :                     5
    i.e. gridpoints    :                   590
 value for diffuse not defined
 radial integration    : Chebyshev 2nd kind (scaling 3)
 radial gridsize       :                     8
 integration cells     :                    24
 partition function    : becke
 partition sharpness   :                     3
  
 
 Derivatives of quadrature weights will be included
 
          Overall gridpoints after grid construction =        375380
 Ordering of quadrature gridpoints disabled.
 
 
 
 
 OCCUPIED-OCCUPIED TENSOR SPACES :

          IRREP   tensor space dimension   number of roots

           a              1764                  66
 
 OCCUPIED-VIRTUAL TENSOR SPACES :

          IRREP   tensor space dimension   number of roots

           a             16884                  66
 
 
 
 
 CONSTRUCTING integral bounds

 setting up bound for integral derivative estimation

 increment for numerical differentiation : 0.00050000
 
 machine precision:   2.220446049250313E-016

 integral neglect threshold       :  0.10E-09
 integral storage threshold THIZE :  0.10E-04
 integral storage threshold THIME :         5

 
 
 
 PREPARING NUMERICAL INTEGRATION
 
 Remaining core memory for DFT =                 97580 MB
 
 Memory needed per atom    =                  2982 KiB
 
     i. e.                    24 atoms per loop

 Calculating ground state density on molecular grid

 Integral of ground state density: N =   83.99999755143851    


 
 
 CONSTRUCTING first deriv. of <mu|x,y,z|nu> -> Dip. deriv.
  dipole integral derivatives will be neglected if
  expon. factor <0.992063E-12
      ...terminated. cpu:       1.02       wall:       0.04
 
 
 
 
 CONSTRUCTING first deriv. of  <mu|nu>
                               <mu|h|nu>    -> RHS
              second deriv. of <mu|nu>      -> Hessian
                               <mu|h|nu>    -> Hessian
                               nucl. rep.   -> Hessian
     integrals are neglected if expon. factor <  9.920634920634920E-014
  _________________________________
 |                                 |
 |         DFTD3 V3.1 Rev 0        |
 | S.Grimme, University Bonn       |
 |         June 2014               |
 |   see standalone version        |
 |       dftd3 -h for options      |
 |_________________________________|
 
 Please cite DFT-D3 work done with this code as:
 S. Grimme, J. Antony, S. Ehrlich and H. Krieg,
 J. Chem. Phys, 132 (2010), 154104.
 If used with BJ-damping cite also
 S. Grimme, S. Ehrlich and L. Goerigk,
 J. Comput. Chem. 32 (2011), 1456-1465
 For DFT-D2 the reference is
 S. Grimme, J. Comput. Chem., 27 (2006), 1787-1799
 
      ...terminated. cpu:      20.62       wall:       2.12
 
 
 
 
 CONSTRUCTING second deriv. of 2e energy    -> Hessian
   treating Coulomb (and exchange) contribution
     integrals will be neglected if total contribution <  9.920634920634920E-010
      ...terminated. cpu:     985.81       wall:      35.80
   treating exchange-correlation contribution
      ...terminated. cpu:    1078.60       wall:      39.09
 
 
 
 
 CONSTRUCTING S(i,j)xi
      ...terminated. cpu:       0.03       wall:       0.03
 
 
 
 
 CONSTRUCTING <i|x,y,z|j>*S(i,j)xi          -> Dip. deriv.
      ...terminated. cpu:       0.38       wall:       0.03
 
 
 
 
 CONSTRUCTING epsilon(i)*S(i,j)xi*S(i,j)chi -> Hessian
      ...terminated. cpu:       0.05       wall:       0.00
 
 
 
 
 CONSTRUCTING G(a,i)[S(k,l)xi]              -> RHS
              G(i,j)[S(k,l)xi]*S(i,j)chi    -> Hessian
 
         Maximum core memory set to                  98000 MB
         This corresponds to                 50057 vectors in CAO basis
      ...terminated. cpu:    4894.98       wall:     175.01
 
 
 
 
 CONSTRUCTING G(mu,nu)[D(kap,lam)]xi
 
          Maximum core memory set to                  98000 MB
          Atoms treated simultaneously :                    24
      ...terminated. cpu:    2646.17       wall:      94.55
 
 
 
 
 CONSTRUCTING F(a,i)xi                      -> RHS
              F(i,j)xi*S(i,j)chi            -> Hessian
 
        Maximum core memory set to                 98000 MB
        This corresponds to                 89112 vectors in CAO basis
      ...terminated. cpu:      20.84       wall:       1.39
 
 
 
 
 CONSTRUCTING epsilon(i)*S(a,i)xi           -> RHS
      ...terminated. cpu:       5.52       wall:       0.20
 
 
 
 
 SOLVING CPHF equations
 
 Residuum convergence criterium   :  1.000000000000000E-005
 
 Maximum number of Davidson iterations set to                    25


                       Nonorthonormal Krylov Space Iteration


 total number of roots to be determined:  66


 maximum core memory set to 98000 MB,
 corresponding to    49886 vectors in CAO basis


 maximum number of simultaneously treated vectors (including degeneracy):       66


 Iteration IRREP Converged      Max. Euclidean
                 roots          residual norm

    1       a        0        6.771796348914746D-02
 
    2       a        0        8.319507103328627D-03
 
    3       a        0        6.460089743048856D-04
 
    4       a       21        3.943537969360202D-05
 
    5       a       66        9.924038231361069D-06
 

 converged!

      ...terminated. cpu:   20635.71       wall:     737.50
 
 
 
 
 CONSTRUCTING <a|x,y,z|i>*U(a,i)xi          -> Dip. deriv.
      ...terminated. cpu:       0.99       wall:       0.03
 
 
 
 
 CONSTRUCTING RHS(a,i)xi*U(a,i)chi          -> Hessian
      ...terminated. cpu:       0.46       wall:       0.02
 
 
 
 

            -----------------------
            permanent dipole moment
            -----------------------

                                   x                y                z
    electronic part       :    0.0108418989    -0.2419912789     0.0125424588
     nuclear   part       :   -0.0145191179     0.0623548361     0.0014252491
     total                :   -0.0036772191    -0.1796364427     0.0139677079

 with reference to the point :   0.0000000        0.0000000        0.0000000
 (given in atomic units)
    | dipole |       :    0.4580672930  debye

   ***  dipole moment & cartesian dipole gradients written onto
        $dipole, $dipgrad,  file=<dipgrad>  ***

             -----------------------------------
             rotational and vibrational analysis
             -----------------------------------


            ==============================================================
            ATOMIC WEIGHTS (average over the natural occurance of isotops)
            ==============================================================
            ('*' denotes special isotop !)
              1     h                 1.00797
              2     c                12.01115
              3     c                12.01115
              4     h                 1.00797
              5     c                12.01115
              6     h                 1.00797
              7     c                12.01115
              8     h                 1.00797
              9     c                12.01115
             10     h                 1.00797
             11     c                12.01115
             12     h                 1.00797
             13     h                 1.00797
             14     c                12.01115
             15     c                12.01115
             16     h                 1.00797
             17     c                12.01115
             18     h                 1.00797
             19     c                12.01115
             20     h                 1.00797
             21     c                12.01115
             22     h                 1.00797
             23     c                12.01115
             24     h                 1.00797

          -------------------------------------------------
          CARTESIAN FORCE CONSTANT MATRIX (hartree/bohr**2)
         (translational & rotational space projected out)
          -------------------------------------------------

   ATOM              1 h                           2 c 
                  dx        dy        dz        dx        dy        dz
   1 h     dx  0.1205224
           dy -0.0089713 0.0266937
           dz  0.1218869-0.0042964 0.2922595
   2 c     dx -0.1169978 0.0070035-0.1127513 0.6593692
           dy  0.0070428-0.0372998 0.0044805-0.0924182 0.1516727
           dz -0.1127520 0.0042514-0.2757746 0.0365041 0.0303060 0.7167434
   3 c     dx -0.0093647 0.0022744 0.0014929-0.3249526 0.0451305-0.0414975
           dy  0.0002244 0.0025987-0.0002963 0.0491371-0.0696085 0.0035004
           dz -0.0297974 0.0053148 0.0023308 0.0207212-0.0076897-0.1275267
   4 h     dx  0.0010641-0.0009277-0.0003775-0.0113045 0.0043986 0.0284388
           dy -0.0008547-0.0037035 0.0003763 0.0023075 0.0019389-0.0050400
           dz  0.0005292 0.0002228 0.0007746-0.0028377 0.0006556 0.0049749
   5 c     dx -0.0056280 0.0023835 0.0000090-0.0228929 0.0034921-0.0324139
           dy  0.0024066 0.0069611-0.0003646 0.0012748 0.0077018 0.0068281
           dz  0.0010323-0.0004940 0.0018937-0.0752283 0.0143790 0.0271998
   6 h     dx -0.0006532 0.0001752 0.0001730 0.0010978 0.0009141-0.0032567
           dy  0.0000696 0.0002139-0.0000473 0.0009834 0.0072031-0.0001682
           dz -0.0015522 0.0002741-0.0000161-0.0022030-0.0003854-0.0051055
   7 c     dx -0.0008527 0.0001204 0.0008335-0.0497578 0.0088633 0.0266128
           dy  0.0000893-0.0006620-0.0000979 0.0089865-0.0107307-0.0049918
           dz  0.0008405-0.0001232 0.0003329 0.0264585-0.0050126-0.0129949
   8 h     dx  0.0000568-0.0002658-0.0000724-0.0008549 0.0000927 0.0008502
           dy -0.0002613-0.0013278 0.0001041 0.0000764-0.0005973-0.0000813
           dz -0.0000767 0.0000856-0.0000298 0.0008473-0.0000872 0.0003240
   9 c     dx -0.0010192 0.0017257 0.0042981 0.0606009-0.0105607-0.0163625
           dy  0.0017069 0.0069183-0.0014063-0.0081190 0.0093279-0.0008453
           dz  0.0032652-0.0011938-0.0027909 0.0263713-0.0087631-0.0577038
  10 h     dx  0.0004220-0.0000812-0.0008051-0.0004523 0.0012026-0.0032844
           dy  0.0000164 0.0002870 0.0000642 0.0011299 0.0070589-0.0000767
           dz  0.0009251-0.0002481-0.0010938-0.0043195 0.0001448-0.0035346
  11 c     dx  0.0116904-0.0026085-0.0150258-0.1814302 0.0291923 0.1207618
           dy -0.0005800 0.0029239 0.0013049 0.0254475-0.0679925-0.0346464
           dz  0.0162925-0.0041575-0.0189601 0.0587845-0.0238508-0.2723839
  12 h     dx  0.0007706-0.0008227 0.0003304-0.0123701 0.0024802-0.0035758
           dy -0.0008634-0.0037545 0.0002701 0.0043463 0.0020110 0.0007973
           dz -0.0006064 0.0004142 0.0010798 0.0277174-0.0047437 0.0060102
  13 h     dx  0.0000024 0.0000038 0.0000005-0.0000071-0.0000066-0.0000121
           dy  0.0000017 0.0000023 0.0000075-0.0000192-0.0000126-0.0000381
           dz -0.0000014 0.0000066-0.0000047 0.0000019-0.0000142 0.0000029
  14 c     dx -0.0000003-0.0000196 0.0000200 0.0000179 0.0000431-0.0000276
           dy  0.0000094-0.0000340 0.0000278-0.0000531 0.0000078 0.0000030
           dz  0.0000028-0.0000120 0.0000137-0.0000493-0.0000264-0.0000236
  15 c     dx  0.0000217-0.0000024-0.0000393 0.0000953 0.0000566 0.0000601
           dy  0.0000083-0.0000042 0.0000189-0.0000210 0.0000675-0.0001130
           dz  0.0000038-0.0000476 0.0000303 0.0000148 0.0000767-0.0000148
  16 h     dx -0.0000021-0.0000282 0.0000265-0.0000195 0.0000266 0.0000100
           dy -0.0000042-0.0000115 0.0000083 0.0000029 0.0000469 0.0000530
           dz  0.0000012 0.0000348-0.0000320 0.0000082-0.0000191 0.0000334
  17 c     dx  0.0000183-0.0000337 0.0000291-0.0002444 0.0002028 0.0001224
           dy -0.0000115 0.0000035-0.0000377-0.0000537-0.0001217 0.0003293
           dz  0.0000103-0.0000776 0.0000489 0.0001996 0.0005400 0.0002088
  18 h     dx -0.0000298 0.0000555-0.0000387 0.0003181-0.0001008-0.0002434
           dy -0.0000078 0.0001479-0.0001024-0.0000907-0.0004902 0.0003018
           dz -0.0000134 0.0000550-0.0000663-0.0002452 0.0000795-0.0003638
  19 c     dx -0.0000519 0.0000612-0.0000510-0.0001148-0.0001194-0.0000001
           dy -0.0000176 0.0000178 0.0000091 0.0000488-0.0001427-0.0002395
           dz  0.0000118-0.0000238 0.0000122 0.0001568-0.0000024-0.0000153
  20 h     dx  0.0000169-0.0000146 0.0000279-0.0000354 0.0000197-0.0000213
           dy -0.0000237-0.0000031-0.0000107 0.0000286-0.0000007-0.0000094
           dz -0.0000067 0.0000028 0.0000010-0.0002151 0.0000067-0.0000090
  21 c     dx  0.0000151 0.0000007 0.0000129-0.0000234 0.0000413 0.0000381
           dy  0.0000045 0.0000121-0.0000155 0.0000793 0.0000259-0.0000306
           dz  0.0000063 0.0000045-0.0000058 0.0000950-0.0000704-0.0000374
  22 h     dx -0.0000034-0.0000076 0.0000014 0.0000120 0.0000139 0.0000160
           dy  0.0000000 0.0000073-0.0000017-0.0000099-0.0000206-0.0000314
           dz -0.0000049 0.0000053-0.0000026 0.0000003-0.0000059-0.0000110
  23 c     dx  0.0000007-0.0000160 0.0000145-0.0000533-0.0000127 0.0000295
           dy  0.0000101 0.0000055 0.0000043-0.0000567-0.0000328-0.0000395
           dz  0.0000045-0.0000011 0.0000005-0.0000133-0.0000055-0.0000055
  24 h     dx  0.0000014-0.0000046 0.0000046-0.0000004 0.0000053 0.0000035
           dy  0.0000054 0.0000071 0.0000010-0.0000108-0.0000120-0.0000191
           dz -0.0000013 0.0000032-0.0000013-0.0000183 0.0000075 0.0000069

   ATOM              3 c                           4 h 
                  dx        dy        dz        dx        dy        dz
   3 c     dx  0.6640185
           dy -0.0981453 0.1539345
           dz -0.0269845 0.0416532 0.7109888
   4 h     dx -0.1336382 0.0257727 0.1203263 0.1384686
           dy  0.0258627-0.0435498-0.0366115-0.0293626 0.0333642
           dz  0.1203843-0.0363736-0.2530911-0.1299300 0.0398537 0.2677295
   5 c     dx -0.1688738 0.0121260-0.1159923 0.0116136-0.0004583 0.0174510
           dy  0.0158873-0.0641119 0.0070657-0.0025009 0.0029845-0.0045864
           dz -0.0539640-0.0047003-0.2898058-0.0138019 0.0012986-0.0188373
   6 h     dx -0.0105202 0.0025620 0.0020462 0.0007378-0.0008597-0.0002322
           dy  0.0007542 0.0027136-0.0003693-0.0008248-0.0037834 0.0003845
           dz -0.0292349 0.0053803 0.0035024 0.0006885 0.0001781 0.0011174
   7 c     dx  0.0608795-0.0078321 0.0264107-0.0004545 0.0011612-0.0043152
           dy -0.0103570 0.0093678-0.0085968 0.0012153 0.0070646 0.0000926
           dz -0.0164945-0.0010191-0.0577255-0.0032750-0.0000578-0.0035297
   8 h     dx -0.0010144 0.0016845 0.0032651 0.0004312 0.0000384 0.0009210
           dy  0.0017554 0.0068519-0.0011980-0.0000629 0.0002687-0.0002427
           dz  0.0043101-0.0013505-0.0028025-0.0008095 0.0000624-0.0010927
   9 c     dx -0.0456360 0.0048671-0.0298052-0.0007265-0.0000664-0.0009158
           dy  0.0047686-0.0092995 0.0048244-0.0000421-0.0006209 0.0002044
           dz -0.0297593 0.0047829-0.0184537-0.0009275 0.0001918 0.0001603
  10 h     dx -0.0007216-0.0000294-0.0009237 0.0000419-0.0002487 0.0001157
           dy -0.0000162-0.0006080 0.0002395-0.0002547-0.0013235 0.0000726
           dz -0.0009228 0.0002173 0.0001534 0.0001127 0.0000550-0.0000118
  11 c     dx -0.0305898 0.0085500 0.0271876-0.0055009 0.0022441-0.0008704
           dy  0.0107696 0.0052203-0.0033085 0.0022314 0.0070139-0.0002180
           dz  0.0699125-0.0110785 0.0371525-0.0018856 0.0000094 0.0017044
  12 h     dx  0.0006941 0.0014432 0.0034952-0.0007442 0.0001544-0.0002534
           dy  0.0013876 0.0071058-0.0013771 0.0002626 0.0001831 0.0000324
           dz  0.0024707-0.0011841-0.0045517 0.0014781-0.0002682 0.0001126
  13 h     dx  0.0000050-0.0000109-0.0000071-0.0000008 0.0000075-0.0000035
           dy  0.0000162-0.0000188-0.0000311-0.0000012 0.0000070 0.0000009
           dz  0.0000038-0.0000094-0.0000061 0.0000047 0.0000036-0.0000015
  14 c     dx -0.0000094 0.0000280-0.0000341-0.0000111-0.0000126 0.0000035
           dy  0.0000011-0.0000536-0.0000604 0.0000089 0.0000246-0.0000189
           dz  0.0000010-0.0000444-0.0000246-0.0000028 0.0000035-0.0000048
  15 c     dx -0.0000663 0.0001131 0.0000881-0.0000363-0.0000348 0.0000057
           dy  0.0000134 0.0000380-0.0001227-0.0000249-0.0000284 0.0000421
           dz -0.0000202 0.0000404 0.0000234-0.0000276-0.0000172 0.0000121
  16 h     dx -0.0000011-0.0000113-0.0000167 0.0000062 0.0000110-0.0000168
           dy -0.0000162-0.0000004 0.0000002 0.0000088-0.0000003-0.0000077
           dz  0.0000335-0.0000039-0.0000041 0.0000099 0.0000047-0.0000036
  17 c     dx -0.0000695-0.0001627-0.0002786 0.0000023 0.0000025 0.0000176
           dy -0.0001005-0.0002965 0.0002158 0.0000540 0.0000676-0.0001057
           dz -0.0002136 0.0004512 0.0000428-0.0000222-0.0000589 0.0000374
  18 h     dx -0.0000432-0.0000766 0.0003885-0.0000230 0.0000202-0.0000226
           dy -0.0001464-0.0002912 0.0000611 0.0000759 0.0001016-0.0000669
           dz  0.0004741 0.0000042-0.0002242 0.0000144 0.0000300-0.0000385
  19 c     dx  0.0000697-0.0000132 0.0002227 0.0000301-0.0000267 0.0000512
           dy  0.0000578-0.0000064-0.0000639 0.0000021 0.0000012 0.0000397
           dz -0.0000262 0.0001117-0.0000288-0.0000264-0.0000889 0.0000731
  20 h     dx -0.0001007-0.0001084-0.0001905 0.0000150 0.0000542-0.0000266
           dy  0.0000594 0.0000317 0.0002009 0.0000067 0.0000179-0.0000238
           dz  0.0000202-0.0001006 0.0000765 0.0000229 0.0000863-0.0000997
  21 c     dx -0.0000625-0.0000836-0.0001191 0.0000126 0.0000403-0.0000321
           dy -0.0000174 0.0000724-0.0000106-0.0000352-0.0000460 0.0000278
           dz  0.0000153 0.0000456-0.0000344-0.0000174-0.0000266 0.0000314
  22 h     dx -0.0000136 0.0000125 0.0000258-0.0000004-0.0000040-0.0000020
           dy  0.0000142-0.0000076-0.0000275 0.0000022-0.0000017 0.0000130
           dz -0.0000125 0.0000038 0.0000158 0.0000036 0.0000060-0.0000081
  23 c     dx  0.0000157-0.0000403-0.0000147 0.0000158 0.0000213-0.0000170
           dy  0.0000405-0.0000635-0.0000788-0.0000019 0.0000080 0.0000051
           dz  0.0000097-0.0000120-0.0000110-0.0000000 0.0000037-0.0000041
  24 h     dx -0.0000049-0.0000068-0.0000134 0.0000013 0.0000031-0.0000038
           dy  0.0000061-0.0000190-0.0000297-0.0000004 0.0000116-0.0000034
           dz  0.0000019-0.0000181 0.0000038 0.0000037 0.0000060-0.0000046

   ATOM              5 c                           6 h 
                  dx        dy        dz        dx        dy        dz
   5 c     dx  0.7145187
           dy -0.1039559 0.1549550
           dz  0.0090071 0.0299626 0.6588633
   6 h     dx -0.3236523 0.0512992-0.0131340 0.3440486
           dy  0.0512231-0.0458389 0.0009558-0.0569331 0.0359693
           dz -0.0131169 0.0009863-0.0598372 0.0142778-0.0006043 0.0588744
   7 c     dx -0.1816440 0.0249697 0.0591179-0.0124089 0.0044740 0.0277034
           dy  0.0285668-0.0684199-0.0227950 0.0025650 0.0021362-0.0048579
           dz  0.1210289-0.0343651-0.2727226-0.0035778 0.0008936 0.0059802
   8 h     dx  0.0117138-0.0006792 0.0162482 0.0007646-0.0009044-0.0006040
           dy -0.0024155 0.0030924-0.0042796-0.0008358-0.0037987 0.0004104
           dz -0.0150368 0.0014868-0.0189531 0.0003260 0.0002196 0.0010861
   9 c     dx -0.0305045 0.0112619 0.0700225 0.0006865 0.0013618 0.0024643
           dy  0.0084952 0.0056067-0.0105332 0.0013792 0.0070368-0.0011403
           dz  0.0272408-0.0030033 0.0368971 0.0035336-0.0013330-0.0045543
  10 h     dx -0.0054975 0.0021901-0.0018926-0.0007473 0.0002712 0.0014759
           dy  0.0022905 0.0069319-0.0000204 0.0001729 0.0002059-0.0002787
           dz -0.0008641-0.0001705 0.0017195-0.0002505 0.0000381 0.0001105
  11 c     dx  0.0004277-0.0013698 0.0024183 0.0007188-0.0002448 0.0000906
           dy -0.0016171-0.0083561-0.0037931-0.0002492-0.0006881-0.0000473
           dz  0.0025992-0.0037964-0.0649745 0.0000845-0.0000593-0.0013149
  12 h     dx  0.0007190-0.0002614 0.0000987-0.0001160-0.0002236 0.0000046
           dy -0.0002736-0.0006893-0.0000593-0.0002232-0.0013076 0.0000887
           dz  0.0000947-0.0000473-0.0013225 0.0000054 0.0000880 0.0001467
  13 h     dx -0.0000024-0.0000112 0.0000007 0.0000083 0.0000110 0.0000002
           dy  0.0000355-0.0000272-0.0000008 0.0000010 0.0000081-0.0000002
           dz  0.0000040-0.0000057 0.0000045-0.0000007 0.0000011-0.0000001
  14 c     dx  0.0000151-0.0000360-0.0000278 0.0000141 0.0000102 0.0000025
           dy  0.0000634-0.0000562 0.0000115 0.0000319 0.0000273 0.0000008
           dz  0.0000061-0.0000093 0.0000637 0.0000035 0.0000016-0.0000044
  15 c     dx -0.0002405 0.0001035-0.0000151 0.0000302 0.0000077 0.0000019
           dy  0.0001413-0.0000865-0.0000510-0.0000554-0.0000285 0.0000013
           dz  0.0000007 0.0000174-0.0000463 0.0000017-0.0000013 0.0000162
  16 h     dx  0.0000190-0.0000325 0.0000069 0.0000401 0.0000267 0.0000016
           dy  0.0000079-0.0000181 0.0000036 0.0000203 0.0000094-0.0000001
           dz -0.0000017 0.0000024-0.0000408 0.0000007 0.0000010-0.0000034
  17 c     dx  0.0001075-0.0003096-0.0000422 0.0000061 0.0000059 0.0000001
           dy -0.0003728-0.0000866 0.0000065 0.0001868 0.0000952 0.0000066
           dz -0.0000466-0.0000478-0.0003443 0.0000254 0.0000224 0.0000030
  18 h     dx -0.0006381 0.0000802 0.0000977-0.0000074-0.0000172 0.0000021
           dy -0.0001289-0.0002097 0.0000680 0.0000753 0.0000637-0.0000115
           dz -0.0000028 0.0000296 0.0002757-0.0000150-0.0000173-0.0000385
  19 c     dx  0.0002454 0.0001689-0.0000047-0.0003815-0.0002155 0.0000017
           dy  0.0003587-0.0002074 0.0000390-0.0001426-0.0000621-0.0000024
           dz  0.0000504 0.0000633-0.0000101-0.0000431-0.0000420-0.0000551
  20 h     dx  0.0002056-0.0002756 0.0000261 0.0001343 0.0000241-0.0000018
           dy  0.0000172-0.0000458 0.0000052-0.0001178-0.0002253 0.0000089
           dz -0.0000124-0.0000309 0.0000004 0.0000259 0.0000282 0.0001005
  21 c     dx -0.0000517-0.0001972 0.0000129 0.0001849 0.0001336-0.0000029
           dy -0.0000947 0.0000100-0.0000262 0.0000097 0.0000117 0.0000010
           dz -0.0000223 0.0000076-0.0000058 0.0000014 0.0000023-0.0000231
  22 h     dx -0.0000163 0.0000242-0.0000017-0.0000028-0.0000103 0.0000013
           dy  0.0000600 0.0000014 0.0000029-0.0000199-0.0000116-0.0000031
           dz  0.0000071 0.0000038-0.0000092-0.0000028-0.0000021 0.0000089
  23 c     dx  0.0000584-0.0000201 0.0000213-0.0000023 0.0000037-0.0000008
           dy  0.0000490-0.0000597 0.0000181 0.0000262 0.0000273-0.0000047
           dz  0.0000073-0.0000217-0.0000101 0.0000052 0.0000045 0.0000031
  24 h     dx -0.0000017-0.0000169 0.0000015 0.0000196 0.0000137-0.0000002
           dy  0.0000065-0.0000313 0.0000018 0.0000180 0.0000227-0.0000009
           dz  0.0000034-0.0000044 0.0000018 0.0000026 0.0000035 0.0000032

   ATOM              7 c                           8 h 
                  dx        dy        dz        dx        dy        dz
   7 c     dx  0.6587253
           dy -0.0928453 0.1522915
           dz  0.0357089 0.0269535 0.7172297
   8 h     dx -0.1165549 0.0083282-0.1122723 0.1199982
           dy  0.0083677-0.0376196 0.0073112-0.0104898 0.0269316
           dz -0.1123180 0.0071531-0.2759956 0.1214415-0.0073149 0.2924991
   9 c     dx -0.3243672 0.0450775-0.0413421-0.0093116 0.0022435 0.0014993
           dy  0.0487946-0.0702273 0.0033944 0.0004990 0.0027029-0.0002772
           dz  0.0205695-0.0077069-0.1273082-0.0297962 0.0053922 0.0023276
  10 h     dx -0.0113269 0.0041356 0.0284716 0.0010636-0.0009169-0.0003959
           dy  0.0023663 0.0020704-0.0049617-0.0008701-0.0037519 0.0003201
           dz -0.0028266 0.0006376 0.0049401 0.0005246 0.0001663 0.0007822
  11 c     dx -0.0231141 0.0036583-0.0322954-0.0056498 0.0023038 0.0000156
           dy  0.0008753 0.0081130 0.0071338 0.0024155 0.0068379-0.0003260
           dz -0.0749726 0.0149423 0.0269462 0.0010446-0.0005351 0.0019032
  12 h     dx  0.0011204 0.0009574-0.0032304-0.0006466 0.0001691 0.0001767
           dy  0.0010014 0.0071620-0.0001312 0.0000702 0.0002559-0.0000405
           dz -0.0021996-0.0003421-0.0051149-0.0015551 0.0002612-0.0000162
  13 h     dx  0.0000040-0.0000080 0.0000110-0.0000007 0.0000065 0.0000015
           dy  0.0000178-0.0000266 0.0000380 0.0000008 0.0000087-0.0000009
           dz -0.0000058 0.0000006 0.0000029-0.0000040-0.0000025-0.0000028
  14 c     dx  0.0000045-0.0000154 0.0000506-0.0000052-0.0000073 0.0000010
           dy  0.0000003-0.0000461 0.0000713 0.0000057 0.0000234 0.0000127
           dz -0.0000002 0.0000410-0.0000015 0.0000020-0.0000035-0.0000022
  15 c     dx -0.0000798 0.0001147-0.0000959-0.0000301-0.0000332-0.0000020
           dy  0.0000092-0.0000545 0.0001557-0.0000148-0.0000149-0.0000255
           dz  0.0000330-0.0000230 0.0000261 0.0000160 0.0000143 0.0000121
  16 h     dx  0.0000128-0.0000124 0.0000241 0.0000048 0.0000099 0.0000130
           dy -0.0000187 0.0000050-0.0000016 0.0000085 0.0000002 0.0000083
           dz -0.0000313-0.0000036-0.0000123-0.0000090-0.0000041-0.0000033
  17 c     dx -0.0001581-0.0001656 0.0003089 0.0000112 0.0000194-0.0000001
           dy -0.0000833-0.0001983-0.0001984 0.0000092 0.0000171 0.0000549
           dz  0.0001734-0.0005078 0.0000369 0.0000352 0.0000764 0.0000577
  18 h     dx  0.0000841-0.0000840-0.0004310-0.0000286 0.0000056 0.0000021
           dy -0.0003964-0.0003410-0.0000903 0.0000908 0.0001360 0.0000671
           dz -0.0004831 0.0000841-0.0001484-0.0000393-0.0000740-0.0000686
  19 c     dx  0.0001194-0.0000805-0.0002102 0.0000215-0.0000489-0.0000549
           dy  0.0000814 0.0000852 0.0000685-0.0000053-0.0000249-0.0000458
           dz  0.0000397-0.0000731-0.0000534 0.0000228 0.0000777 0.0000407
  20 h     dx -0.0001374-0.0000710 0.0001936 0.0000136 0.0000589 0.0000212
           dy  0.0000478 0.0000602-0.0001959 0.0000044 0.0000140 0.0000178
           dz -0.0000448 0.0000984 0.0000963-0.0000168-0.0000826-0.0000730
  21 c     dx -0.0000915-0.0000407 0.0001252 0.0000072 0.0000394 0.0000242
           dy -0.0000127 0.0000396 0.0000083-0.0000228-0.0000319-0.0000121
           dz -0.0000093-0.0000090-0.0000218 0.0000012 0.0000123 0.0000206
  22 h     dx -0.0000096 0.0000105-0.0000256-0.0000002-0.0000049 0.0000021
           dy  0.0000128-0.0000121 0.0000227 0.0000031 0.0000008-0.0000080
           dz  0.0000122 0.0000013 0.0000112-0.0000015-0.0000050-0.0000083
  23 c     dx  0.0000132-0.0000204 0.0000144 0.0000096 0.0000171 0.0000089
           dy  0.0000226-0.0000401 0.0000742 0.0000013 0.0000135-0.0000014
           dz -0.0000041-0.0000055 0.0000181 0.0000000-0.0000001-0.0000019
  24 h     dx -0.0000057-0.0000051 0.0000140 0.0000011 0.0000039 0.0000034
           dy  0.0000027-0.0000175 0.0000320-0.0000001 0.0000117 0.0000016
           dz -0.0000044 0.0000059 0.0000082-0.0000019-0.0000028-0.0000034

   ATOM              9 c                          10 h 
                  dx        dy        dz        dx        dy        dz
   9 c     dx  0.6634183
           dy -0.0970278 0.1536441
           dz -0.0277227 0.0382871 0.7104528
  10 h     dx -0.1341002 0.0242495 0.1208152 0.1389798
           dy  0.0241947-0.0427609-0.0335901-0.0275820 0.0325170
           dz  0.1208156-0.0337591-0.2532095-0.1304725 0.0369116 0.2679026
  11 c     dx -0.1685538 0.0126075-0.1156241 0.0116077-0.0006092 0.0175181
           dy  0.0162334-0.0642293 0.0073436-0.0023696 0.0030434-0.0043753
           dz -0.0538553-0.0035820-0.2892640-0.0137963 0.0011587-0.0188422
  12 h     dx -0.0104724 0.0024910 0.0020510 0.0007419-0.0008548-0.0002471
           dy  0.0006298 0.0027042-0.0002670-0.0007931-0.0038141 0.0003287
           dz -0.0292444 0.0052800 0.0034873 0.0006912 0.0001720 0.0011198
  13 h     dx -0.0000058-0.0000065 0.0000101 0.0000023 0.0000041-0.0000008
           dy -0.0000262-0.0000186 0.0000366 0.0000020 0.0000045-0.0000051
           dz -0.0000057 0.0000156 0.0000042 0.0000017-0.0000051-0.0000046
  14 c     dx -0.0000137 0.0000095 0.0000315 0.0000012-0.0000184-0.0000140
           dy -0.0000517-0.0000024-0.0000067 0.0000076-0.0000226-0.0000153
           dz  0.0000381 0.0000353-0.0000096-0.0000002-0.0000011 0.0000025
  15 c     dx  0.0001222 0.0000661-0.0000531 0.0000148 0.0000045 0.0000401
           dy -0.0001013 0.0000382 0.0001150 0.0000093-0.0000041-0.0000139
           dz -0.0000137-0.0000833 0.0000044-0.0000016 0.0000427 0.0000186
  16 h     dx -0.0000211 0.0000144-0.0000218 0.0000007-0.0000252-0.0000169
           dy  0.0000115 0.0000448-0.0000619-0.0000042-0.0000124-0.0000060
           dz -0.0000085 0.0000248 0.0000216 0.0000014-0.0000339-0.0000233
  17 c     dx -0.0002659 0.0002175-0.0001712 0.0000240-0.0000380-0.0000265
           dy  0.0000044-0.0000001-0.0003455 0.0000069-0.0000692-0.0000047
           dz -0.0003186-0.0004416 0.0000150-0.0000150 0.0000718 0.0000614
  18 h     dx  0.0003692-0.0001022 0.0003071-0.0000396 0.0000826 0.0000457
           dy  0.0001012-0.0006230-0.0003385-0.0000245 0.0001776 0.0000801
           dz  0.0004385-0.0000397-0.0000736 0.0000190-0.0000990-0.0000941
  19 c     dx -0.0001773-0.0000842-0.0000368-0.0000485 0.0000500 0.0000296
           dy  0.0000808-0.0001906 0.0002946-0.0000157 0.0000355-0.0000007
           dz -0.0001520-0.0000047 0.0000012-0.0000186 0.0000281 0.0000142
  20 h     dx -0.0000082 0.0000136 0.0000266 0.0000171-0.0000119-0.0000219
           dy  0.0000656 0.0000011 0.0000215-0.0000245-0.0000013 0.0000096
           dz  0.0001982-0.0000002-0.0000042 0.0000139-0.0000069-0.0000037
  21 c     dx  0.0000022 0.0000564-0.0000522 0.0000180-0.0000074-0.0000158
           dy  0.0000543 0.0000019 0.0000506 0.0000037 0.0000108 0.0000122
           dz -0.0000436 0.0000634-0.0000103-0.0000052-0.0000031-0.0000037
  22 h     dx  0.0000140 0.0000125-0.0000186-0.0000031-0.0000068-0.0000001
           dy -0.0000199-0.0000246 0.0000380-0.0000015 0.0000098 0.0000018
           dz  0.0000017-0.0000038-0.0000015 0.0000039-0.0000043-0.0000022
  23 c     dx -0.0000301-0.0000046-0.0000337 0.0000005-0.0000128-0.0000089
           dy -0.0000464-0.0000194 0.0000371 0.0000079 0.0000082-0.0000029
           dz  0.0000028-0.0000042 0.0000050-0.0000004 0.0000008 0.0000000
  24 h     dx  0.0000000 0.0000050-0.0000048 0.0000014-0.0000043-0.0000034
           dy -0.0000128-0.0000102 0.0000186 0.0000049 0.0000071-0.0000016
           dz  0.0000110-0.0000085 0.0000070 0.0000022-0.0000011-0.0000013

   ATOM             11 c                          12 h 
                  dx        dy        dz        dx        dy        dz
  11 c     dx  0.7147421
           dy -0.1043531 0.1544902
           dz  0.0089626 0.0299099 0.6579155
  12 h     dx -0.3243618 0.0505956-0.0131195 0.3446897
           dy  0.0505463-0.0454819 0.0009121-0.0560981 0.0355131
           dz -0.0131144 0.0009321-0.0598428 0.0142704-0.0005472 0.0589090
  13 h     dx -0.0000055-0.0000090 0.0000008 0.0000016 0.0000063-0.0000008
           dy -0.0000475-0.0000093-0.0000053 0.0000091-0.0000017-0.0000005
           dz -0.0000053 0.0000015 0.0000103 0.0000007 0.0000004 0.0000029
  14 c     dx -0.0000432 0.0000057-0.0000173 0.0000271-0.0000509 0.0000056
           dy  0.0000201 0.0000526-0.0000185 0.0000261-0.0000370 0.0000020
           dz -0.0000014 0.0000003 0.0000315 0.0000054-0.0000088-0.0000104
  15 c     dx  0.0002308-0.0000407 0.0000146-0.0000850 0.0001144-0.0000096
           dy -0.0001266 0.0000371-0.0000354 0.0000161-0.0000090 0.0000051
           dz  0.0000004 0.0000127-0.0000506 0.0000010-0.0000082-0.0000131
  16 h     dx  0.0000150 0.0000388-0.0000034 0.0000355-0.0000631 0.0000026
           dy  0.0000364 0.0000763 0.0000034 0.0000267-0.0000558 0.0000040
           dz  0.0000030-0.0000085-0.0000108-0.0000022 0.0000062 0.0000230
  17 c     dx  0.0001136 0.0004154 0.0000059 0.0000530-0.0000934 0.0000105
           dy  0.0003608 0.0002303 0.0000373 0.0000009-0.0000643 0.0000052
           dz  0.0001395 0.0000739-0.0005871-0.0000012-0.0000060 0.0000124
  18 h     dx -0.0002683-0.0000030-0.0000663-0.0001012 0.0001422-0.0000183
           dy  0.0002784-0.0007777 0.0002040-0.0000695 0.0001629-0.0000210
           dz -0.0001208 0.0000319 0.0005244-0.0000034 0.0000011-0.0000300
  19 c     dx -0.0003074 0.0001053 0.0000111-0.0000370 0.0000431-0.0000040
           dy -0.0003149-0.0003012-0.0000488-0.0000107 0.0000413-0.0000049
           dz -0.0000421-0.0000028 0.0001035-0.0000045 0.0000048 0.0000109
  20 h     dx  0.0000956-0.0000275-0.0000068 0.0000332-0.0000230 0.0000018
           dy -0.0000289-0.0001013-0.0000079-0.0000103 0.0000149-0.0000019
           dz  0.0000249 0.0000023-0.0001413 0.0000052-0.0000031-0.0000180
  21 c     dx  0.0001381 0.0000536 0.0000146 0.0000250-0.0000276 0.0000024
           dy -0.0000058-0.0000401-0.0000131-0.0000227 0.0000295-0.0000005
           dz -0.0000172-0.0000159 0.0001228-0.0000036 0.0000042 0.0000043
  22 h     dx  0.0000199 0.0000158-0.0000001-0.0000001-0.0000097 0.0000004
           dy -0.0000539-0.0000322-0.0000030-0.0000028 0.0000107-0.0000005
           dz -0.0000066-0.0000046-0.0000013 0.0000004 0.0000005-0.0000006
  23 c     dx  0.0000144 0.0000390-0.0000043 0.0000173-0.0000204 0.0000007
           dy -0.0000254-0.0000158 0.0000132 0.0000040 0.0000116-0.0000013
           dz  0.0000002-0.0000023-0.0000231 0.0000008 0.0000009 0.0000009
  24 h     dx  0.0000107 0.0000071 0.0000001 0.0000059-0.0000108 0.0000008
           dy -0.0000097-0.0000132 0.0000014 0.0000028 0.0000091-0.0000006
           dz  0.0000007 0.0000017-0.0000177 0.0000006 0.0000008 0.0000005

   ATOM             13 h                          14 c 
                  dx        dy        dz        dx        dy        dz
  13 h     dx  0.2406551
           dy  0.1425985 0.1695431
           dz  0.0207524 0.0186831 0.0274125
  14 c     dx -0.2276908-0.1316901-0.0189758 0.7039723
           dy -0.1316346-0.1621486-0.0166506 0.0333017 0.6818045
           dz -0.0189624-0.0166682-0.0368344 0.0211700 0.0556877 0.1334276
  15 c     dx  0.0070814-0.0271142-0.0025138-0.1310257 0.0608018 0.0037400
           dy  0.0046339-0.0140154-0.0014121-0.0020314-0.3264856-0.0265197
           dz  0.0006182-0.0023876 0.0014892-0.0024744-0.0245713-0.0605813
  16 h     dx  0.0008232 0.0004389 0.0001859-0.0007808-0.0007280-0.0001515
           dy -0.0005687 0.0011685 0.0004600 0.0310491-0.0065746 0.0001451
           dz  0.0000852 0.0004913-0.0036424 0.0029830-0.0008436 0.0017753
  17 c     dx  0.0014213 0.0026249 0.0000676 0.0461996-0.0633872-0.0049902
           dy  0.0014725-0.0055727-0.0012635-0.0200391-0.0406922-0.0053227
           dz -0.0000493-0.0012272 0.0075768-0.0007136-0.0066443 0.0062297
  18 h     dx  0.0002042-0.0014249-0.0001379-0.0039725-0.0029531-0.0006628
           dy  0.0003279-0.0007304-0.0000784-0.0036085-0.0000688-0.0008259
           dz  0.0000329-0.0001426 0.0001554-0.0007511-0.0008414 0.0074138
  19 c     dx -0.0000183 0.0010417 0.0001253-0.0247518 0.0320080 0.0026536
           dy  0.0010145-0.0005302 0.0000522 0.0324793-0.0401633-0.0021274
           dz  0.0001180 0.0000428-0.0006371 0.0026892-0.0021380-0.0087493
  20 h     dx  0.0000120-0.0001310 0.0000312-0.0000739 0.0010231 0.0000981
           dy -0.0001097 0.0000481 0.0001335 0.0009867-0.0004947 0.0000419
           dz  0.0000325 0.0001416-0.0013988 0.0001082 0.0000398-0.0004411
  21 c     dx -0.0042515 0.0028311-0.0000885-0.0558389 0.0052054-0.0014393
           dy  0.0039805 0.0001617-0.0006010-0.0389595 0.0593788 0.0039514
           dz  0.0000295-0.0006391 0.0074585-0.0057769 0.0053074 0.0073222
  22 h     dx -0.0011093 0.0006606 0.0000206-0.0020532-0.0045687-0.0007411
           dy -0.0010917 0.0003889-0.0000249-0.0034163-0.0019689-0.0010278
           dz -0.0001497 0.0000312 0.0002750-0.0006268-0.0010742 0.0073539
  23 c     dx -0.0182922 0.0108229 0.0004506-0.3047168 0.0401383-0.0037148
           dy -0.0209533 0.0109376 0.0002483 0.1030526-0.1544540-0.0063241
           dz -0.0026946 0.0012444 0.0018316 0.0025095-0.0082774-0.0585977
  24 h     dx  0.0011636-0.0006485 0.0000883 0.0007355 0.0307238 0.0029955
           dy  0.0003434 0.0008338 0.0004611-0.0010608-0.0080163-0.0009866
           dz  0.0001868 0.0004293-0.0036940-0.0001352-0.0000036 0.0016510

   ATOM             15 c                          16 h 
                  dx        dy        dz        dx        dy        dz
  15 c     dx  0.7214619
           dy -0.0260487 0.6652214
           dz  0.0158887 0.0518719 0.1349611
  16 h     dx -0.2945390 0.0945394 0.0011890 0.3132764
           dy  0.0944511-0.0969192-0.0030923-0.1023650 0.0988368
           dz  0.0011567-0.0030878-0.0354387-0.0010416 0.0040569 0.0254548
  17 c     dx -0.2538210-0.0681688-0.0127568-0.0189445-0.0193753-0.0025745
           dy -0.1309520-0.2057956-0.0182249 0.0121506 0.0114741 0.0012418
           dz -0.0188319-0.0161749-0.0641779 0.0004988 0.0002332 0.0027982
  18 h     dx  0.0081047-0.0261800-0.0023695 0.0010771 0.0006899 0.0002140
           dy  0.0050052-0.0138088-0.0014948-0.0001712 0.0008820 0.0004562
           dz  0.0006640-0.0025303 0.0029381 0.0001322 0.0005060-0.0039494
  19 c     dx -0.0556927-0.0384652-0.0058337-0.0020742-0.0034755-0.0006150
           dy  0.0046851 0.0596396 0.0051098-0.0044890-0.0019531-0.0010236
           dz -0.0015144 0.0037562 0.0095523-0.0007166-0.0009840 0.0069443
  20 h     dx -0.0042655 0.0038630 0.0000526-0.0011390-0.0010949-0.0001531
           dy  0.0029333 0.0001249-0.0005669 0.0006659 0.0004090 0.0000264
           dz -0.0000787-0.0005553 0.0068901 0.0000157-0.0000300 0.0003109
  21 c     dx -0.0084008-0.0230909-0.0022396 0.0004583-0.0007314-0.0000497
           dy -0.0224350-0.0560665-0.0053218-0.0007562-0.0010072-0.0000915
           dz -0.0021768-0.0053470-0.0095560-0.0000481-0.0000756-0.0003891
  22 h     dx  0.0005037-0.0007128-0.0000428-0.0000473 0.0000743 0.0000515
           dy -0.0007330-0.0010375-0.0000844 0.0000835 0.0001103 0.0001586
           dz -0.0000402-0.0000653-0.0005218 0.0000522 0.0001535-0.0014323
  23 c     dx  0.0161878 0.0803734 0.0082290 0.0019774-0.0003611-0.0002094
           dy  0.0363229-0.0122833-0.0007320 0.0007950-0.0059712-0.0013035
           dz  0.0038615 0.0006618 0.0068185-0.0001010-0.0013524 0.0073662
  24 h     dx -0.0055717 0.0014346-0.0002691-0.0001780 0.0016277 0.0001475
           dy  0.0026138 0.0014752-0.0005293-0.0001184-0.0005395-0.0000820
           dz -0.0001509-0.0005739 0.0076080-0.0000243-0.0000236 0.0002578

   ATOM             17 c                          18 h 
                  dx        dy        dz        dx        dy        dz
  17 c     dx  0.6611724
           dy -0.0122167 0.7334115
           dz  0.0150801 0.0578061 0.1421603
  18 h     dx -0.0650468 0.0388681 0.0029372 0.0649812
           dy  0.0391031-0.3302739-0.0271173-0.0417518 0.3505078
           dz  0.0029482-0.0268772-0.0402169-0.0029075 0.0297574 0.0292221
  19 c     dx -0.3042230 0.1034555 0.0027780 0.0007035-0.0003966-0.0001509
           dy  0.0406857-0.1555139-0.0078377 0.0305864-0.0068715-0.0001181
           dz -0.0033567-0.0058925-0.0637947 0.0028761-0.0010092 0.0034232
  20 h     dx -0.0188075-0.0208984-0.0026953 0.0011793 0.0000860 0.0001744
           dy  0.0103863 0.0110015 0.0011042-0.0006919 0.0006385 0.0004431
           dz  0.0003825 0.0001426 0.0031407 0.0001176 0.0004449-0.0040165
  21 c     dx  0.0163477 0.0368683 0.0038485-0.0055456 0.0020719-0.0001494
           dy  0.0801780-0.0118410 0.0005771 0.0014806 0.0013755-0.0005393
           dz  0.0081482-0.0008080 0.0077614-0.0002335-0.0004800 0.0072628
  22 h     dx  0.0019660 0.0008178-0.0000894-0.0001915-0.0001592-0.0000245
           dy -0.0003259-0.0060804-0.0013448 0.0016269-0.0003736-0.0000176
           dz -0.0002078-0.0013150 0.0074387 0.0001422-0.0000617 0.0001964
  23 c     dx -0.0645839-0.0092344-0.0026898-0.0012344-0.0002790-0.0000381
           dy -0.0092665-0.0004042 0.0003695-0.0002819 0.0007228 0.0001558
           dz -0.0026727 0.0003766-0.0075370-0.0000501 0.0001439-0.0008146
  24 h     dx -0.0012781-0.0002932-0.0000393 0.0001485 0.0000149 0.0000468
           dy -0.0002981 0.0007099 0.0001604 0.0000293-0.0000562 0.0001187
           dz -0.0000439 0.0001734-0.0009722 0.0000514 0.0001133-0.0012685

   ATOM             19 c                          20 h 
                  dx        dy        dz        dx        dy        dz
  19 c     dx  0.7037688
           dy  0.0332548 0.6842826
           dz  0.0206719 0.0551611 0.1370456
  20 h     dx -0.2270834-0.1322243-0.0186996 0.2402850
           dy -0.1328029-0.1632235-0.0165209 0.1436702 0.1708419
           dz -0.0186660-0.0164295-0.0378902 0.0204487 0.0185592 0.0277449
  21 c     dx -0.1312561 0.0608451 0.0037979 0.0071911-0.0266943-0.0024990
           dy -0.0019973-0.3273233-0.0264183 0.0048389-0.0140089-0.0014428
           dz -0.0024283-0.0245273-0.0613911 0.0006288-0.0023814 0.0017683
  22 h     dx -0.0007999-0.0006485-0.0001477 0.0008262 0.0004241 0.0001825
           dy  0.0310986-0.0063727 0.0001377-0.0006020 0.0011623 0.0004646
           dz  0.0029921-0.0008383 0.0019196 0.0000736 0.0004872-0.0037042
  23 c     dx  0.0459897-0.0633691-0.0050343 0.0014114 0.0025901 0.0000786
           dy -0.0194310-0.0410873-0.0052816 0.0014872-0.0053714-0.0012330
           dz -0.0007116-0.0065958 0.0058652-0.0000220-0.0011904 0.0074467
  24 h     dx -0.0039302-0.0029427-0.0006527 0.0002147-0.0013823-0.0001379
           dy -0.0041301-0.0001290-0.0009012 0.0003437-0.0008899-0.0001025
           dz -0.0007699-0.0008703 0.0076193 0.0000343-0.0001501 0.0002235

   ATOM             21 c                          22 h 
                  dx        dy        dz        dx        dy        dz
  21 c     dx  0.7213182
           dy -0.0267823 0.6649886
           dz  0.0156818 0.0520294 0.1334135
  22 h     dx -0.2947650 0.0943050 0.0012671 0.3133637
           dy  0.0944003-0.0968369-0.0031992-0.1022369 0.0987931
           dz  0.0012793-0.0031946-0.0350087-0.0011708 0.0041154 0.0253224
  23 c     dx -0.2535923-0.0678399-0.0127386-0.0187550-0.0194651-0.0025594
           dy -0.1307483-0.2037185-0.0184196 0.0123163 0.0113650 0.0013187
           dz -0.0189320-0.0164838-0.0600509 0.0005796 0.0003408 0.0018354
  24 h     dx  0.0081606-0.0259530-0.0023539 0.0010649 0.0006771 0.0002145
           dy  0.0058162-0.0151981-0.0014745-0.0003179 0.0009308 0.0004480
           dz  0.0007819-0.0024563 0.0013724 0.0001160 0.0004785-0.0036656

   ATOM             23 c                          24 h 
                  dx        dy        dz        dx        dy        dz
  23 c     dx  0.6604337
           dy -0.0120933 0.7251143
           dz  0.0153503 0.0585636 0.1327091
  24 h     dx -0.0648851 0.0387692 0.0028704 0.0643267
           dy  0.0387834-0.3246925-0.0273884-0.0420172 0.3456057
           dz  0.0028661-0.0273857-0.0368446-0.0029125 0.0302752 0.0277100
 

   *** projected hessian written onto $hessian (projected), file=<hessian> ***

 dipole moment in principle axis system (a.u.) :
     0.0029686810    -0.1793904629     0.0169740721
 norm :  0.180216176741109     

 rotational constants b for rotations around axis of inertia
 and optical intensities for (1 <-- 0) transition

   b   :     0.0148966162     0.0639393608     0.0138399450   (cm**(-1))
   b   :         446.5893        1916.8538         414.9111     (MHz)
  int. :     0.0000088131     0.0321809382     0.0002881191     (a.u.)

   x   :     0.9987324958     0.0334690785    -0.0375928535
   y   :    -0.0340911914     0.9992901429    -0.0160312488
   z   :     0.0370296168     0.0172925143     0.9991645392

   ***  normal modes written onto $vibrational normal modes, file=<vib_normal_modes>  ***

   ***  vibrational spectroscopic data written onto$vibrational spectrum   
        file=<vibspectrum>  ***

          ---------------------------------------------------
          NORMAL MODES and VIBRATIONAL FREQUENCIES (cm**(-1))
          ---------------------------------------------------

 imaginary wave numbers indicate a negative curvature of the energy surface.
 zero frequency modes have no physical meaning except being generators of
 translations and rotations. each vibrational normal mode - given in terms of
 cartesian displacement vectors of all atoms - has been normalized to unity.
 to obtain mass-weigthed normal coordinates in a.u. divide the tabulated
 modes by sqrt(reduced mass * 1822.88853).
 band intensities or cross sections refer to independent non-degenerate normal
 modes, that is, the intensities of degenerate modes have yet to be added.
 dDIP/dQ is the normal mode derivative of the dipole moment.

 WARNING: values of IR intensities are questionable for saddle point structures


       mode               1        2        3        4        5        6

     frequency          i6.42     0.00     0.00     0.00     0.00     0.00

     symmetry            a                                                

        IR               YES       -        -        -        -        - 
|dDIP/dQ|   (a.u.)     0.0000   0.0000   0.0000   0.0000   0.0000   0.0000
intensity (km/mol)       0.00     0.00     0.00     0.00     0.00     0.00
intensity (  %   )       0.00     0.00     0.00     0.00     0.00     0.00
 
       RAMAN             YES       -        -        -        -        - 
 
  1   h           x   0.14263  0.03914  0.08016  0.33348 -0.11539  0.07518
                  y  -0.18914 -0.13563 -0.02490  0.06831  0.18355  0.04474
                  z  -0.07511 -0.09571  0.11062 -0.07692  0.15905 -0.20699
  2   c           x   0.08019  0.01709  0.12074  0.25947 -0.05439  0.05534
                  y  -0.10975 -0.07517 -0.02718  0.04019  0.16413  0.07599
                  z  -0.04061 -0.08262  0.08948 -0.03924  0.12684 -0.19584
  3   c           x   0.07894  0.01541  0.12414  0.24190 -0.05466  0.05781
                  y  -0.08651 -0.07183 -0.02409 -0.03049  0.13792  0.09938
                  z   0.06713 -0.03588  0.03091  0.06362  0.03676 -0.16111
  4   h           x   0.14034  0.03615  0.08621  0.30219 -0.11588  0.07958
                  y  -0.14718 -0.12968 -0.01940 -0.05737  0.13693  0.08634
                  z   0.11626 -0.01254  0.00646  0.10599 -0.00116 -0.14521
  5   c           x  -0.00126 -0.01292  0.17629  0.14650  0.02359  0.03242
                  y   0.01353  0.00584 -0.02703 -0.06656  0.11299  0.13951
                  z   0.11189 -0.01871  0.00378  0.11192 -0.00461 -0.14666
  6   h           x  -0.00216 -0.01423  0.17894  0.13278  0.02335  0.03436
                  y   0.03130  0.00844 -0.02463 -0.12160  0.09258  0.15772
                  z   0.19620  0.01776 -0.04184  0.19201 -0.07477 -0.11960
  7   c           x  -0.08033 -0.03959  0.22508  0.06841  0.10207  0.00461
                  y   0.09107  0.08020 -0.03307 -0.03195  0.11428  0.15625
                  z   0.04946 -0.04803  0.03521  0.05735  0.04408 -0.16685
  8   h           x  -0.14262 -0.06166  0.26572 -0.00624  0.16289 -0.01506
                  y   0.16950  0.14070 -0.03537 -0.05998  0.09489  0.18749
                  z   0.08472 -0.03426  0.01411  0.09486  0.01187 -0.15546
  9   c           x  -0.07917 -0.03791  0.22168  0.08597  0.10236  0.00214
                  y   0.06875  0.07687 -0.03617  0.03874  0.14050  0.13286
                  z  -0.05842 -0.09478  0.09380 -0.04553  0.13419 -0.20159
 10   h           x  -0.14057 -0.05868  0.25968  0.02500  0.16341 -0.01946
                  y   0.13020  0.13477 -0.04087  0.06573  0.14151  0.14588
                  z  -0.10695 -0.11743  0.11829 -0.08809  0.17211 -0.21725
 11   c           x   0.00113 -0.00956  0.16950  0.18157  0.02413  0.02749
                  y  -0.03191 -0.00083 -0.03322  0.07480  0.16542  0.09272
                  z  -0.10354 -0.11215  0.12093 -0.09381  0.17557 -0.21611
 12   h           x   0.00206 -0.00826  0.16687  0.19511  0.02432  0.02560
                  y  -0.04978 -0.00342 -0.03563  0.12986  0.18584  0.07450
                  z  -0.18731 -0.14840  0.16655 -0.17395  0.24572 -0.24310
 13   h           x  -0.02980 -0.01022  0.17921 -0.15163 -0.11078  0.13739
                  y   0.02382 -0.01025 -0.03461  0.11670  0.18210  0.07609
                  z   0.16611  0.29281  0.13047 -0.17145  0.15666 -0.07072
 14   c           x  -0.01669 -0.01190  0.18147 -0.12430 -0.09249  0.12486
                  y   0.01736 -0.00497 -0.03288  0.07265  0.16527  0.09186
                  z   0.09160  0.27023  0.09704 -0.10548  0.10925 -0.06893
 15   c           x   0.00170 -0.01399  0.18356 -0.06337 -0.05867  0.10031
                  y   0.00850  0.00331 -0.03383  0.08257  0.16762  0.09182
                  z   0.21440  0.17896  0.11042 -0.11709  0.13640 -0.10637
 16   h           x   0.00292 -0.01392  0.18292 -0.04321 -0.05062  0.09372
                  y   0.00809  0.00446 -0.03631  0.13439  0.18629  0.07601
                  z   0.38438  0.13039  0.15430 -0.19215  0.20499 -0.13735
 17   c           x   0.01849 -0.01615  0.18645 -0.02821 -0.03516  0.08421
                  y   0.00026  0.01008 -0.03160  0.02607  0.14604  0.11205
                  z   0.11875  0.14987  0.06756 -0.03247  0.07562 -0.10413
 18   h           x   0.03262 -0.01773  0.18799  0.01933 -0.00898  0.06516
                  y  -0.00633  0.01639 -0.03233  0.03368  0.14785  0.11200
                  z   0.21260  0.07892  0.07787 -0.04133  0.09659 -0.13321
 19   c           x   0.01682 -0.01622  0.18723 -0.05408 -0.04556  0.09270
                  y   0.00094  0.00854 -0.02841 -0.04043  0.12208  0.13232
                  z  -0.10034  0.21225  0.01124  0.06386 -0.01242 -0.06435
 20   h           x   0.02985 -0.01788  0.18943 -0.02648 -0.02728  0.08014
                  y  -0.00541  0.01375 -0.02668 -0.08433  0.10533  0.14801
                  z  -0.17527  0.18940 -0.02205  0.12961 -0.05959 -0.06271
 21   c           x  -0.00152 -0.01414  0.18516 -0.11500 -0.07934  0.11723
                  y   0.00977  0.00029 -0.02745 -0.05045  0.11969  0.13240
                  z  -0.22311  0.30354 -0.00222  0.07561 -0.03968 -0.02688
 22   h           x  -0.00277 -0.01420  0.18578 -0.13511 -0.08741  0.12382
                  y   0.01030 -0.00090 -0.02497 -0.10227  0.10102  0.14820
                  z  -0.39344  0.35208 -0.04611  0.15068 -0.10827  0.00408
 23   c           x  -0.01830 -0.01198  0.18227 -0.15013 -0.10283  0.13332
                  y   0.01798 -0.00648 -0.02969  0.00611  0.14130  0.11216
                  z  -0.12718  0.33255  0.04069 -0.00909  0.02118 -0.02917
 24   h           x  -0.03261 -0.01036  0.18065 -0.19757 -0.12915  0.15243
                  y   0.02487 -0.01292 -0.02894 -0.00165  0.13945  0.11220
                  z  -0.22272  0.40364  0.03024  0.00000  0.00000  0.00000

reduced mass(g/mol)     3.659    5.806    6.140    4.875    5.537    6.262


       mode               7        8        9       10       11       12

     frequency           0.00     6.11    27.92    49.77    56.47    57.90

     symmetry                     a        a        a        a        a   

        IR                -       YES      YES      YES      YES      YES
|dDIP/dQ|   (a.u.)     0.0000   0.0002   0.0001   0.0002   0.0002   0.0002
intensity (km/mol)       0.00     0.05     0.02     0.10     0.06     0.10
intensity (  %   )       0.00     0.03     0.01     0.07     0.04     0.08
 
       RAMAN              -       YES      YES      YES      YES      YES
 
  1   h           x   0.12052 -0.11238  0.04292  0.02939  0.04226  0.05384
                  y   0.06489 -0.23068  0.08834 -0.01989 -0.11372  0.40654
                  z   0.04292  0.03584 -0.00247 -0.03197 -0.00515 -0.08187
  2   c           x   0.04126 -0.06539  0.03899  0.01585  0.05139  0.02425
                  y   0.06025 -0.14004  0.04916 -0.08977 -0.05635  0.24531
                  z   0.08396  0.01386 -0.00145 -0.02691 -0.00836 -0.07079
  3   c           x   0.04277 -0.06215  0.01471  0.01735  0.09321  0.01258
                  y   0.09863 -0.13246 -0.08560 -0.08014  0.17606  0.18262
                  z   0.19303 -0.03044  0.00308 -0.02620 -0.02197 -0.06560
  4   h           x   0.12322 -0.10669 -0.00021  0.03243  0.11773  0.03368
                  y   0.13315 -0.21807 -0.15201 -0.00231  0.30421  0.29406
                  z   0.23686 -0.04260  0.00579 -0.03078 -0.02996 -0.07266
  5   c           x  -0.05887 -0.00165  0.00919 -0.00053  0.10594 -0.02466
                  y   0.09264 -0.01692 -0.13308 -0.17237  0.24821 -0.01849
                  z   0.24554 -0.05823  0.00428 -0.01994 -0.02611 -0.05267
  6   h           x  -0.05766  0.00103 -0.00901  0.00068  0.13903 -0.03361
                  y   0.12252 -0.01126 -0.23453 -0.16539  0.43014 -0.06751
                  z   0.33045 -0.09294  0.00764 -0.01961 -0.03697 -0.04916
  7   c           x  -0.16196  0.05532  0.02747 -0.02011  0.07734 -0.05058
                  y   0.04824  0.09091 -0.04945 -0.27724  0.08986 -0.15576
                  z   0.18888 -0.04109  0.00117 -0.01445 -0.01686 -0.04552
  8   h           x  -0.24094  0.10254  0.02280 -0.03514  0.08854 -0.08048
                  y   0.04353  0.18237 -0.08706 -0.35564  0.14905 -0.31349
                  z   0.22954 -0.06185  0.00214 -0.00986 -0.02029 -0.03618
  9   c           x  -0.16349  0.05148  0.05173 -0.02190  0.03549 -0.03951
                  y   0.00984  0.08288  0.08561 -0.28620 -0.14178 -0.09261
                  z   0.07978  0.00324 -0.00340 -0.01510 -0.00329 -0.05078
 10   h           x  -0.24367  0.09584  0.06581 -0.03786  0.01370 -0.05983
                  y  -0.02475  0.16740  0.15342 -0.37155 -0.26622 -0.19974
                  z   0.03554  0.01682 -0.00591 -0.01088  0.00394 -0.04546
 11   c           x  -0.06189 -0.00873  0.05780 -0.00370  0.02231 -0.00194
                  y   0.01586 -0.03251  0.13598 -0.19149 -0.21508  0.10727
                  z   0.02737  0.03041 -0.00478 -0.02133  0.00101 -0.06320
 12   h           x  -0.06302 -0.01148  0.07669 -0.00537 -0.01029  0.00718
                  y  -0.01405 -0.03857  0.24285 -0.20153 -0.39794  0.15808
                  z  -0.05765  0.06517 -0.00843 -0.02191  0.01166 -0.06776
 13   h           x   0.14550  0.00701  0.15257  0.01373  0.01779 -0.00797
                  y  -0.00439  0.07553 -0.23716  0.16630 -0.11601  0.00122
                  z  -0.17298 -0.37104 -0.00325  0.03526 -0.03395 -0.07754
 14   c           x   0.11854  0.00621  0.07141  0.00824 -0.01833  0.00149
                  y   0.01846  0.05326 -0.13366  0.17426 -0.07266 -0.01917
                  z  -0.08893 -0.20258 -0.00174  0.02888 -0.01350 -0.01759
 15   c           x   0.06801  0.00961 -0.09718 -0.00263 -0.09249  0.01958
                  y   0.01012  0.03641 -0.16006  0.17132 -0.08663 -0.03132
                  z  -0.07819 -0.01789  0.02167  0.04020  0.02364  0.13940
 16   h           x   0.05562  0.01319 -0.14754 -0.00576 -0.11467  0.02444
                  y  -0.01924  0.04581 -0.28601  0.16343 -0.14181 -0.02057
                  z  -0.15391 -0.04330  0.03810  0.05508  0.03147  0.19964
 17   c           x   0.03335  0.00857 -0.20160 -0.00861 -0.13811  0.03136
                  y   0.03943  0.00777 -0.02676  0.17875 -0.03123 -0.05615
                  z   0.02964  0.19838  0.02336  0.03169  0.04921  0.21197
 18   h           x  -0.00579  0.01138 -0.32900 -0.01792 -0.19219  0.04556
                  y   0.03305 -0.00470 -0.04579  0.17474 -0.04120 -0.06356
                  z   0.03819  0.33845  0.03979  0.04094  0.07483  0.32179
 19   c           x   0.04935  0.00415 -0.13784 -0.00408 -0.11027  0.02501
                  y   0.07712 -0.00381  0.13206  0.19200  0.03856 -0.07079
                  z   0.12680  0.22965  0.00256  0.01341  0.03961  0.13732
 20   h           x   0.02238  0.00370 -0.22047 -0.01046 -0.14761  0.03511
                  y   0.09990 -0.02581  0.23545  0.20017  0.08301 -0.09125
                  z   0.21066  0.39627  0.00441  0.00778  0.05947  0.19578
 21   c           x   0.09983  0.00076  0.03027  0.00730 -0.03671  0.00699
                  y   0.08550  0.01295  0.15918  0.19551  0.05307 -0.05898
                  z   0.11622  0.04569 -0.02098  0.00114  0.00219 -0.01997
 22   h           x   0.11224 -0.00266  0.08019  0.01071 -0.01505  0.00223
                  y   0.11487  0.00389  0.28416  0.20423  0.10734 -0.06949
                  z   0.19196  0.07019 -0.03743 -0.01438 -0.00648 -0.08223
 23   c           x   0.13445  0.00177  0.13501  0.01314  0.00965 -0.00468
                  y   0.05616  0.04151  0.02590  0.18692 -0.00249 -0.03286
                  z   0.00830 -0.17072 -0.02360  0.00870 -0.02503 -0.10071
 24   h           x   0.17379 -0.00088  0.26582  0.02158  0.06757 -0.01867
                  y   0.06267  0.05461  0.04671  0.18903  0.00873 -0.02309
                  z   0.00000 -0.31426 -0.04227 -0.00089 -0.05479 -0.22647

reduced mass(g/mol)     4.848    3.712    3.730    5.955    3.946    4.030


       mode              13       14       15       16       17       18

     frequency         404.96   405.44   406.95   407.41   611.32   611.36

     symmetry            a        a        a        a        a        a   

        IR               YES      YES      YES      YES      YES      YES
|dDIP/dQ|   (a.u.)     0.0000   0.0001   0.0001   0.0002   0.0001   0.0002
intensity (km/mol)       0.00     0.02     0.01     0.10     0.04     0.07
intensity (  %   )       0.00     0.01     0.00     0.07     0.03     0.05
 
       RAMAN             YES      YES      YES      YES      YES      YES
 
  1   h           x   0.06284 -0.05232  0.04073 -0.01772 -0.05234 -0.16317
                  y   0.35169 -0.29463  0.22433 -0.09722  0.03191  0.02904
                  z  -0.02207  0.01850 -0.01470  0.00672  0.25271 -0.21416
  2   c           x   0.02917 -0.02421  0.01860 -0.00800  0.18709 -0.09460
                  y   0.15997 -0.13429  0.10158 -0.04362 -0.02582  0.00158
                  z  -0.00969  0.00823 -0.00652  0.00315  0.12773 -0.25162
  3   c           x  -0.02580  0.02464  0.02292 -0.00028  0.18405 -0.13183
                  y  -0.14352  0.13690  0.12663 -0.00350 -0.04981  0.02265
                  z   0.00866 -0.00835 -0.00813  0.00061 -0.25921 -0.00516
  4   h           x  -0.05803  0.05517  0.05097 -0.00111  0.14407  0.11260
                  y  -0.31681  0.30061  0.28118 -0.00981 -0.03450 -0.00056
                  z   0.02000 -0.01888 -0.01857  0.00128 -0.28545  0.15070
  5   c           x  -0.00288 -0.00056 -0.04200  0.00794 -0.11501 -0.19980
                  y  -0.01610 -0.00273 -0.23133  0.04408  0.01209  0.03952
                  z   0.00102 -0.00009  0.01402 -0.00204 -0.13394  0.07300
  6   h           x  -0.00649 -0.00120 -0.09185  0.01715 -0.12472 -0.18877
                  y  -0.03589 -0.00635 -0.50594  0.09498  0.04186  0.03795
                  z   0.00220 -0.00049  0.03036 -0.00542  0.19020 -0.13608
  7   c           x   0.02876 -0.02421  0.01829 -0.00754 -0.18725  0.09413
                  y   0.15956 -0.13392  0.10155 -0.03993  0.02598 -0.00306
                  z  -0.00949  0.00781 -0.00539  0.00271 -0.12757  0.25180
  8   h           x   0.06395 -0.05370  0.04067 -0.01664  0.05427  0.16723
                  y   0.35195 -0.29395  0.22509 -0.08958 -0.01854 -0.00559
                  z  -0.02011  0.01688 -0.01218  0.00546 -0.25328  0.21281
  9   c           x  -0.02603  0.02451  0.02353 -0.00012 -0.18420  0.13151
                  y  -0.14313  0.13663  0.12848 -0.00085  0.04862 -0.02313
                  z   0.00862 -0.00810 -0.00706  0.00064  0.25896  0.00497
 10   h           x  -0.05633  0.05350  0.05114 -0.00068 -0.14126 -0.10923
                  y  -0.31448  0.30022  0.28300 -0.00387  0.04963  0.02231
                  z   0.01833 -0.01737 -0.01570  0.00069  0.28411 -0.15249
 11   c           x  -0.00296 -0.00051 -0.04125  0.00774  0.11474  0.19950
                  y  -0.01683 -0.00197 -0.23026  0.04351 -0.01291 -0.04065
                  z   0.00095  0.00026  0.01404 -0.00179  0.13410 -0.07270
 12   h           x  -0.00645 -0.00096 -0.09034  0.01683  0.12718  0.19266
                  y  -0.03645 -0.00433 -0.50558  0.09436 -0.02864 -0.01700
                  z   0.00169  0.00082  0.03056 -0.00489 -0.19062  0.13517
 13   h           x  -0.00939 -0.00920 -0.00002 -0.00980 -0.01478 -0.03528
                  y  -0.03002 -0.02910 -0.00310 -0.02917 -0.11545 -0.17579
                  z   0.30394  0.29483  0.03191  0.29976 -0.01554 -0.02020
 14   c           x  -0.00436 -0.00424  0.00029 -0.00474 -0.09902 -0.15519
                  y  -0.01396 -0.01365 -0.00111 -0.01334 -0.00995 -0.02536
                  z   0.14129  0.13725  0.01465  0.13860 -0.00454 -0.00735
 15   c           x   0.00418  0.00542 -0.00103 -0.00281 -0.08348 -0.11287
                  y   0.01343  0.01680 -0.00264 -0.00894 -0.02898 -0.05071
                  z  -0.13662 -0.17121  0.02912  0.09366 -0.00459 -0.00848
 16   h           x   0.00906  0.01163 -0.00262 -0.00631 -0.02857 -0.02852
                  y   0.02874  0.03627 -0.00730 -0.01997  0.10663  0.15781
                  z  -0.29229 -0.36741  0.06436  0.21119  0.00685  0.01266
 17   c           x  -0.00002 -0.00098  0.00061  0.00772  0.02583  0.04474
                  y   0.00048 -0.00339  0.00541  0.02286 -0.14815 -0.21882
                  z  -0.00429  0.03390 -0.04436 -0.23500 -0.01285 -0.01949
 18   h           x   0.00026 -0.00182  0.00233  0.01533  0.01550  0.01216
                  y   0.00113 -0.00678  0.01017  0.04877 -0.14858 -0.22225
                  z  -0.01113  0.07011 -0.09603 -0.50840 -0.01894 -0.02410
 19   c           x  -0.00444 -0.00420 -0.00148 -0.00351  0.09943  0.15585
                  y  -0.01383 -0.01372 -0.00105 -0.01310  0.00977  0.02494
                  z   0.14088  0.13841  0.01353  0.13460  0.00402  0.00797
 20   h           x  -0.00911 -0.00861 -0.00119 -0.00841  0.01369  0.03376
                  y  -0.02992 -0.02890 -0.00456 -0.02929  0.11662  0.17729
                  z   0.30333  0.29182  0.03250  0.30156  0.01099  0.01467
 21   c           x   0.00421  0.00526 -0.00077 -0.00298  0.08310  0.11241
                  y   0.01346  0.01663 -0.00216 -0.00961  0.02847  0.04995
                  z  -0.13638 -0.17049  0.02970  0.09768  0.00489  0.00829
 22   h           x   0.00910  0.01135 -0.00144 -0.00674  0.02858  0.02857
                  y   0.02905  0.03611 -0.00454 -0.02148 -0.10656 -0.15785
                  z  -0.29396 -0.36866  0.06462  0.21141 -0.01135 -0.01786
 23   c           x   0.00018 -0.00106  0.00210  0.00685 -0.02585 -0.04468
                  y   0.00046 -0.00345  0.00470  0.02349  0.14715  0.21752
                  z  -0.00488  0.03314 -0.04390 -0.23434  0.01438  0.02038
 24   h           x   0.00042 -0.00220  0.00382  0.01501 -0.01486 -0.01229
                  y   0.00104 -0.00713  0.00964  0.04975  0.14804  0.22116
                  z  -0.01063  0.07051 -0.09369 -0.50134  0.01392  0.01987

reduced mass(g/mol)     2.922    2.941    2.896    2.935    6.007    6.005


       mode              19       20       21       22       23       24

     frequency         611.68   612.53   688.51   690.24   716.16   718.95

     symmetry            a        a        a        a        a        a   

        IR               YES      YES      YES      YES      YES      YES
|dDIP/dQ|   (a.u.)     0.0002   0.0001   0.0067   0.0086   0.0003   0.0001
intensity (km/mol)       0.11     0.02    79.53   132.61     0.16     0.02
intensity (  %   )       0.08     0.01    59.97   100.00     0.12     0.02
 
       RAMAN             YES      YES      YES      YES      YES      YES
 
  1   h           x  -0.19033  0.04881  0.01382  0.06954 -0.00067 -0.06339
                  y   0.02225 -0.00046  0.07477  0.39125 -0.00463 -0.35298
                  z  -0.03953  0.01730 -0.00460 -0.02553  0.00060  0.02207
  2   c           x   0.02970 -0.00200 -0.00057 -0.00637  0.00092 -0.03642
                  y  -0.01540  0.00363 -0.00648 -0.03497  0.00383 -0.20011
                  z  -0.15541  0.04393  0.00054  0.00233 -0.00002  0.01209
  3   c           x  -0.00614  0.00688 -0.00142 -0.00590 -0.00030  0.03613
                  y  -0.00875 -0.00008 -0.00514 -0.03278 -0.00155  0.20152
                  z  -0.16900  0.03633  0.00024  0.00218 -0.00017 -0.01210
  4   h           x   0.19315 -0.04515  0.01371  0.07268 -0.00274  0.06086
                  y  -0.04550  0.01501  0.07598  0.39647 -0.01209  0.33719
                  z  -0.03765  0.00105 -0.00479 -0.02638  0.00014 -0.02128
  5   c           x  -0.25833  0.06307 -0.00150 -0.00590  0.00044 -0.03587
                  y   0.04767 -0.01330 -0.00671 -0.03384  0.00328 -0.20155
                  z  -0.01666  0.00051 -0.00010  0.00215 -0.00059  0.01210
  6   h           x  -0.25990  0.06477  0.01384  0.07068 -0.00127 -0.06381
                  y   0.03645 -0.00200  0.07754  0.38841 -0.00606 -0.35497
                  z  -0.00573  0.00671 -0.00660 -0.02278  0.00118  0.02115
  7   c           x  -0.02933  0.00213 -0.00100 -0.00591 -0.00032  0.03618
                  y   0.01474 -0.00390 -0.00752 -0.03185 -0.00156  0.20165
                  z   0.15506 -0.04393  0.00050  0.00172 -0.00005 -0.01214
  8   h           x   0.18770 -0.04625  0.01595  0.07112 -0.00248  0.06171
                  y  -0.04105  0.01448  0.08461  0.39307 -0.01704  0.34364
                  z   0.04004 -0.01799 -0.00446 -0.02168  0.00045 -0.01974
  9   c           x   0.00618 -0.00673 -0.00200 -0.00605  0.00033 -0.03642
                  y   0.00821 -0.00043 -0.00780 -0.03417  0.00325 -0.20041
                  z   0.16925 -0.03631  0.00063  0.00188 -0.00002  0.01193
 10   h           x  -0.19638  0.04781  0.01384  0.06935 -0.00160 -0.06461
                  y   0.02720 -0.00121  0.08316  0.38708 -0.00701 -0.35886
                  z   0.03899 -0.00204 -0.00451 -0.02170  0.00057  0.02077
 11   c           x   0.25871 -0.06396 -0.00069 -0.00579 -0.00005  0.03696
                  y  -0.04430  0.01016 -0.00619 -0.03161 -0.00158  0.20293
                  z   0.01646 -0.00031 -0.00003  0.00202 -0.00017 -0.01218
 12   h           x   0.25655 -0.06272  0.01472  0.07006 -0.00249  0.05999
                  y  -0.05345  0.01365  0.07994  0.39331 -0.01531  0.33263
                  z   0.00684 -0.00741 -0.00599 -0.02332  0.00034 -0.01974
 13   h           x  -0.04250 -0.30998 -0.01251  0.00330 -0.00976 -0.00030
                  y   0.16062 -0.10758 -0.03981  0.01168 -0.03059 -0.00111
                  z   0.01523 -0.02097  0.40551 -0.07966  0.30598  0.00202
 14   c           x   0.11362 -0.20241  0.00112  0.00223 -0.00714 -0.00064
                  y  -0.03634 -0.24630  0.00324  0.00095 -0.02198 -0.00075
                  z   0.00000 -0.03077 -0.03181  0.00857  0.21948  0.00247
 15   c           x   0.18405  0.24566  0.00103  0.00107  0.00650  0.00020
                  y   0.00646 -0.18543  0.00371  0.00109  0.02072 -0.00015
                  z   0.00625 -0.01042 -0.03643  0.00608 -0.21306 -0.00232
 16   h           x   0.11326  0.31996 -0.01239  0.00334  0.01155  0.00066
                  y  -0.16719  0.00345 -0.03852  0.00838  0.03642  0.00109
                  z  -0.01244  0.01008  0.39333 -0.08217 -0.36782 -0.00507
 17   c           x  -0.00888  0.15063  0.00075 -0.00071 -0.00650  0.00018
                  y   0.23531  0.00549  0.00248  0.00131 -0.02127 -0.00058
                  z   0.02259  0.00537 -0.02655  0.00588  0.21366  0.00250
 18   h           x  -0.07227 -0.22136 -0.01173 -0.00078 -0.01024 -0.00020
                  y   0.22556 -0.04598 -0.03714  0.00739 -0.03487 -0.00061
                  z   0.02012 -0.01211  0.38492 -0.07280  0.35834  0.00296
 19   c           x  -0.11388  0.20209  0.00103 -0.00214  0.00671  0.00045
                  y   0.03705  0.24664  0.00342 -0.00092  0.02090  0.00045
                  z   0.00005  0.03035 -0.03549  0.00580 -0.21190 -0.00240
 20   h           x   0.04381  0.30890 -0.01189  0.00008  0.01150  0.00135
                  y  -0.16006  0.10945 -0.03807  0.00822  0.03749 -0.00071
                  z  -0.01356  0.02047  0.39090 -0.08276 -0.37955 -0.00519
 21   c           x  -0.18371 -0.24589  0.00102 -0.00137 -0.00668 -0.00009
                  y  -0.00592  0.18539  0.00308 -0.00151 -0.02143  0.00040
                  z  -0.00617  0.01047 -0.03202  0.00827  0.21902  0.00265
 22   h           x  -0.11326 -0.32042 -0.01234  0.00259 -0.00975 -0.00027
                  y   0.16739 -0.00436 -0.03968  0.01005 -0.03108  0.00000
                  z   0.01384 -0.01072  0.40426 -0.07991  0.31304  0.00219
 23   c           x   0.00877 -0.15041  0.00118  0.00045  0.00672 -0.00008
                  y  -0.23435 -0.00543  0.00348 -0.00319  0.02174  0.00107
                  z  -0.02298 -0.00491 -0.03654  0.00552 -0.21799 -0.00222
 24   h           x   0.07108  0.22672 -0.01255  0.00148  0.01062  0.00097
                  y  -0.22443  0.04785 -0.03957  0.00545  0.03292  0.00147
                  z  -0.01953  0.01217  0.40033 -0.08549 -0.33098 -0.00475

reduced mass(g/mol)     6.005    6.018    1.085    1.087    4.118    3.782


       mode              25       26       27       28       29       30

     frequency         863.42   863.96   867.89   868.13   959.19   969.21

     symmetry            a        a        a        a        a        a   

        IR               YES      YES      YES      YES      YES      YES
|dDIP/dQ|   (a.u.)     0.0002   0.0005   0.0006   0.0006   0.0002   0.0003
intensity (km/mol)       0.06     0.46     0.73     0.57     0.06     0.12
intensity (  %   )       0.05     0.35     0.55     0.43     0.04     0.09
 
       RAMAN             YES      YES      YES      YES      YES      YES
 
  1   h           x   0.00981 -0.03679 -0.09130  0.00981 -0.00497  0.00067
                  y   0.06083 -0.21432 -0.51086  0.05163 -0.02033 -0.00582
                  z  -0.00352  0.01460  0.03308 -0.00380  0.00163  0.00116
  2   c           x  -0.00194  0.00670  0.01350 -0.00133  0.00018  0.00108
                  y  -0.00877  0.03218  0.07693 -0.00806  0.00394  0.00105
                  z   0.00064 -0.00144 -0.00530  0.00041 -0.00039  0.00098
  3   c           x  -0.00255  0.00491  0.00687  0.01275  0.00001 -0.00146
                  y  -0.01605  0.03197  0.03721  0.06752 -0.00245 -0.00197
                  z   0.00080 -0.00186 -0.00283 -0.00447 -0.00032  0.00087
  4   h           x   0.01857 -0.04017 -0.04628 -0.08112  0.00185 -0.00020
                  y   0.10378 -0.20959 -0.24866 -0.44619  0.01142  0.01278
                  z  -0.00785  0.01377  0.01554  0.02971 -0.00184 -0.00092
  5   c           x  -0.00088 -0.00030 -0.00685  0.01286  0.00006 -0.00021
                  y  -0.00567 -0.00028 -0.03880  0.07257 -0.00061  0.00069
                  z   0.00052 -0.00065  0.00279 -0.00412  0.00041 -0.00081
  6   h           x   0.00683  0.00020  0.04755 -0.08901  0.00054 -0.00101
                  y   0.03725  0.00210  0.26125 -0.48851  0.00264 -0.00415
                  z   0.00086 -0.00227 -0.01396  0.03035  0.00363 -0.00217
  7   c           x   0.00153 -0.00521 -0.01428  0.00165  0.00033  0.00087
                  y   0.01054 -0.03242 -0.07748  0.00857  0.00357  0.00179
                  z  -0.00068  0.00188  0.00425 -0.00072 -0.00023 -0.00000
  8   h           x  -0.01226  0.04029  0.09324 -0.00909 -0.00340 -0.00023
                  y  -0.06795  0.21298  0.51501 -0.05389 -0.01790 -0.01118
                  z   0.00325 -0.01195 -0.02848  0.00232  0.00074  0.00014
  9   c           x   0.00286 -0.00655 -0.00661 -0.01170 -0.00022 -0.00093
                  y   0.01446 -0.03131 -0.03725 -0.06694 -0.00366 -0.00144
                  z  -0.00075  0.00199  0.00198  0.00375  0.00011  0.00019
 10   h           x  -0.01682  0.03580  0.04464  0.08019  0.00445 -0.00041
                  y  -0.09838  0.21001  0.25029  0.44435  0.01920  0.00803
                  z   0.00588 -0.01177 -0.01434 -0.02462 -0.00081 -0.00093
 11   c           x   0.00095  0.00061  0.00692 -0.01369 -0.00032  0.00079
[...]
                  z  -0.03089  0.00118  0.00650  0.00000  0.00998  0.00707
 22   h           x   0.09390 -0.00278 -0.15190 -0.00008 -0.06485 -0.13199
                  y   0.23142 -0.00659 -0.37773 -0.00021 -0.37823 -0.20639
                  z   0.02540 -0.00026 -0.04191  0.00001 -0.03917 -0.02432
 23   c           x   0.30389 -0.01141  0.05738  0.00002 -0.02778  0.08532
                  y   0.04220 -0.00152  0.00767  0.00000 -0.09320 -0.00499
                  z   0.01357 -0.00058  0.00253 -0.00000 -0.01002  0.00215
 24   h           x  -0.28904  0.01202 -0.40036 -0.00021  0.16224 -0.30373
                  y  -0.04177  0.00184 -0.05718 -0.00003 -0.08590 -0.06377
                  z  -0.01313  0.00017 -0.01795 -0.00001 -0.00350 -0.01580

reduced mass(g/mol)     7.123    7.118    1.248    1.248    2.006    1.992


       mode              55       56       57       58       59       60

     frequency        1515.78  1516.93  1634.75  1634.78  1635.13  1635.24

     symmetry            a        a        a        a        a        a   

        IR               YES      YES      YES      YES      YES      YES
|dDIP/dQ|   (a.u.)     0.0021   0.0011   0.0004   0.0002   0.0006   0.0004
intensity (km/mol)       7.54     2.05     0.23     0.04     0.61     0.36
intensity (  %   )       5.68     1.54     0.17     0.03     0.46     0.27
 
       RAMAN             YES      YES      YES      YES      YES      YES
 
  1   h           x   0.26798  0.23614  0.11690 -0.31365  0.15843 -0.05093
                  y  -0.06303 -0.04748 -0.03225  0.05944 -0.03669  0.01504
                  z  -0.23641 -0.07440 -0.17627  0.04026 -0.13617  0.08589
  2   c           x  -0.11492 -0.04213 -0.17026  0.15847 -0.16055  0.07938
                  y   0.01958  0.01159  0.02999 -0.04062  0.03114 -0.01375
                  z  -0.01809  0.06291 -0.01407 -0.19558  0.03634  0.01156
  3   c           x   0.08490 -0.05989  0.21336 -0.01438  0.15787 -0.10323
                  y  -0.01839  0.00714 -0.03086  0.01239 -0.02535  0.01472
                  z  -0.04714 -0.06092  0.12338  0.15904  0.05176 -0.06396
  4   h           x  -0.09160  0.26858 -0.25900 -0.16056 -0.15032  0.12838
                  y   0.00522 -0.04010  0.03488  0.03398  0.01793 -0.01768
                  z  -0.18395  0.14699 -0.18420  0.08285 -0.15311  0.08637
  5   c           x   0.01205  0.05451 -0.09874  0.05303 -0.08470  0.04581
                  y   0.00651 -0.01062  0.01132 -0.02771  0.01512 -0.00436
                  z   0.14420 -0.01347 -0.10451 -0.30435 -0.00256  0.06013
  6   h           x   0.04040  0.06366 -0.11765  0.03167 -0.09360  0.05554
                  y  -0.03898 -0.00821  0.02910  0.01748  0.01582 -0.01672
                  z  -0.52526  0.06189  0.12166  0.39506 -0.00703 -0.07111
  7   c           x  -0.11544 -0.04214  0.17040 -0.15795  0.16084 -0.07789
                  y   0.01987  0.01128 -0.02982  0.04001 -0.03119  0.01331
                  z  -0.01753  0.06298  0.01331  0.19551 -0.03785 -0.01331
  8   h           x   0.26959  0.23609 -0.11947  0.31206 -0.16193  0.04632
                  y  -0.06243 -0.04716  0.03138 -0.05857  0.03702 -0.01333
                  z  -0.23702 -0.07416  0.17679 -0.03924  0.13648 -0.08443
  9   c           x   0.08522 -0.05978 -0.21199  0.01437 -0.15592  0.10401
                  y  -0.01816  0.00736  0.03116 -0.01216  0.02521 -0.01507
                  z  -0.04728 -0.06064 -0.12215 -0.15792 -0.05041  0.06556
 10   h           x  -0.09116  0.26712  0.25560  0.15936  0.14525 -0.13251
                  y   0.00591 -0.04022 -0.03566 -0.03295 -0.01747  0.01960
                  z  -0.18407  0.14659  0.18255 -0.08219  0.14989 -0.08820
 11   c           x   0.01164  0.05428  0.09784 -0.05329  0.08316 -0.04739
                  y   0.00661 -0.01048 -0.01170  0.02791 -0.01510  0.00482
                  z   0.14464 -0.01346  0.10421  0.30295  0.00317 -0.05992
 12   h           x   0.04007  0.06306  0.11715 -0.03219  0.09242 -0.05698
                  y  -0.03883 -0.00829 -0.02769 -0.01794 -0.01528  0.01608
                  z  -0.52684  0.06211 -0.12214 -0.39319  0.00493  0.07091
 13   h           x  -0.01110 -0.13643 -0.18453  0.04752  0.20767 -0.06815
                  y   0.01700  0.03412  0.12407 -0.07001 -0.27445 -0.15258
                  z   0.00130 -0.00088  0.00648 -0.00541 -0.02063 -0.01715
 14   c           x   0.00455 -0.03723  0.05369 -0.04516 -0.17176 -0.14320
                  y  -0.00338 -0.06655 -0.16719  0.04823  0.20691 -0.03534
                  z  -0.00011 -0.00771 -0.01483  0.00336  0.01507 -0.00794
 15   c           x  -0.00382 -0.01667  0.04253  0.01842  0.05617  0.16983
                  y  -0.00375  0.09552  0.19758 -0.03130 -0.15365  0.17596
                  z  -0.00044  0.00884  0.02077 -0.00246 -0.01336  0.02261
 16   h           x   0.00437 -0.16905 -0.12980  0.04000  0.16982 -0.01317
                  y   0.01795 -0.25371 -0.22116  0.01451  0.09925 -0.30386
                  z   0.00132 -0.03015 -0.02573  0.00239  0.01501 -0.03034
 17   c           x  -0.00014  0.11237 -0.02096 -0.04648 -0.16038 -0.28026
                  y   0.00407 -0.00254 -0.09935  0.01683  0.08116 -0.08424
                  z  -0.00018  0.00328 -0.01037  0.00002  0.00309 -0.01688
 18   h           x  -0.00312 -0.42035  0.05738  0.05196  0.17244  0.38379
                  y   0.00333 -0.08087 -0.10038  0.03292  0.14046  0.00228
                  z   0.00668 -0.02117 -0.00870  0.00668  0.01792  0.01145
 19   c           x   0.00470 -0.03428 -0.05327  0.04506  0.17173  0.14313
                  y  -0.00320 -0.06823  0.16683 -0.04820 -0.20749  0.03728
                  z  -0.00013 -0.00775  0.01474 -0.00334 -0.01514  0.00800
 20   h           x  -0.01032 -0.13680  0.18190 -0.04644 -0.20669  0.07378
                  y   0.01622  0.03631 -0.11804  0.06739  0.26836  0.14601
                  z   0.00109 -0.00034 -0.00602  0.00535  0.02045  0.01675
 21   c           x  -0.00394 -0.01927 -0.04289 -0.01812 -0.05563 -0.16798
                  y  -0.00406  0.09297 -0.19786  0.03168  0.15454 -0.17585
                  z  -0.00046  0.00852 -0.02080  0.00261  0.01349 -0.02248
 22   h           x   0.00445 -0.16840  0.12974 -0.04014 -0.17039  0.01501
                  y   0.01810 -0.24778  0.22329 -0.01539 -0.10152  0.30473
                  z   0.00177 -0.02952  0.02599 -0.00261 -0.01529  0.03035
 23   c           x   0.00022  0.11546  0.02130  0.04616  0.15966  0.27662
                  y   0.00395 -0.00177  0.09944 -0.01688 -0.08090  0.08288
                  z   0.00038  0.00342  0.01049 -0.00024 -0.00306  0.01674
 24   h           x  -0.00283 -0.40427 -0.06027 -0.05105 -0.16896 -0.36727
                  y   0.00437 -0.07931  0.09789 -0.03306 -0.13815 -0.00379
                  z   0.00025 -0.02038  0.00768 -0.00494 -0.01872 -0.01175

reduced mass(g/mol)     1.996    1.990    5.295    5.284    5.304    5.280


       mode              61       62       63       64       65       66

     frequency        3154.06  3157.08  3162.35  3166.02  3167.97  3169.22

     symmetry            a        a        a        a        a        a   

        IR               YES      YES      YES      YES      YES      YES
|dDIP/dQ|   (a.u.)     0.0010   0.0003   0.0007   0.0003   0.0002   0.0031
intensity (km/mol)       1.66     0.15     0.82     0.14     0.04    17.54
intensity (  %   )       1.25     0.11     0.62     0.10     0.03    13.22
 
       RAMAN             YES      YES      YES      YES      YES      YES
 
  1   h           x   0.00086  0.17056 -0.00291  0.13108  0.23649 -0.00500
                  y  -0.00001 -0.00897  0.00012 -0.00709 -0.01224  0.00039
                  z   0.00164  0.32799 -0.00563  0.24856  0.45749 -0.00949
  2   c           x  -0.00008 -0.01422  0.00023 -0.01223 -0.01950  0.00045
                  y  -0.00001  0.00078 -0.00001  0.00085  0.00093 -0.00007
                  z  -0.00013 -0.02714  0.00050 -0.02047 -0.03927  0.00077
  3   c           x   0.00006 -0.01663  0.00012  0.01212 -0.02125 -0.00013
                  y  -0.00002  0.00477 -0.00005 -0.00331  0.00625  0.00002
                  z  -0.00008  0.02630 -0.00030 -0.01645  0.03581  0.00014
  4   h           x  -0.00062  0.19884 -0.00174 -0.12922  0.25766  0.00128
                  y   0.00018 -0.05759  0.00062  0.03721 -0.07481 -0.00036
                  z   0.00101 -0.31892  0.00290  0.20382 -0.41615 -0.00190
  5   c           x  -0.00016  0.03787  0.00085 -0.05007  0.00151  0.00120
                  y   0.00003 -0.00675 -0.00018  0.00893 -0.00037 -0.00020
                  z  -0.00001  0.00189  0.00005 -0.00246 -0.00170  0.00008
  6   h           x   0.00180 -0.45262 -0.00927  0.58588 -0.01681 -0.01432
                  y  -0.00022  0.08079  0.00162 -0.10459  0.00313  0.00274
                  z   0.00008 -0.02206 -0.00045  0.02850  0.00140 -0.00075
  7   c           x   0.00009 -0.01585  0.00002  0.01097  0.01821 -0.00055
                  y  -0.00002  0.00119 -0.00001 -0.00102 -0.00124  0.00002
                  z   0.00016 -0.03027  0.00016  0.01764  0.03726 -0.00103
  8   h           x  -0.00099  0.18942 -0.00060 -0.11420 -0.22244  0.00635
                  y   0.00009 -0.01423  0.00013  0.00884  0.01654 -0.00044
                  z  -0.00193  0.36570 -0.00131 -0.21621 -0.43276  0.01216
  9   c           x  -0.00010 -0.01756  0.00017 -0.01486  0.02128 -0.00023
                  y   0.00001  0.00473 -0.00005  0.00384 -0.00583  0.00002
                  z   0.00013  0.02801 -0.00030  0.02108 -0.03588  0.00048
 10   h           x   0.00108  0.21083 -0.00209  0.16227 -0.25773  0.00308
                  y  -0.00025 -0.05663  0.00055 -0.04337  0.06933 -0.00071
                  z  -0.00171 -0.33765  0.00338 -0.25662  0.41534 -0.00512
 11   c           x   0.00001  0.03367 -0.00001  0.04914  0.00253 -0.00224
                  y  -0.00002 -0.00593 -0.00001 -0.00864 -0.00033  0.00035
                  z   0.00001  0.00158 -0.00000  0.00231  0.00198 -0.00012
 12   h           x  -0.00008 -0.40379  0.00053 -0.57724 -0.03023  0.02593
                  y   0.00002  0.07092 -0.00015  0.10135  0.00517 -0.00448
                  z  -0.00001 -0.01951  0.00003 -0.02789 -0.00383  0.00128
 13   h           x  -0.40507 -0.00086 -0.33913  0.00308  0.00180  0.19992
                  y  -0.31679 -0.00067 -0.26307  0.00253  0.00147  0.16099
                  z  -0.04380 -0.00009 -0.03646  0.00034  0.00019  0.02208
 14   c           x   0.03374  0.00007  0.02960 -0.00022 -0.00014 -0.01588
                  y   0.02648  0.00006  0.02148 -0.00027 -0.00015 -0.01565
                  z   0.00366  0.00001  0.00304 -0.00003 -0.00002 -0.00203
 15   c           x  -0.03009 -0.00009 -0.04452 -0.00120 -0.00056 -0.03828
                  y   0.01134  0.00003  0.01702  0.00050  0.00023  0.01612
                  z   0.00017  0.00000  0.00028  0.00001  0.00001  0.00038
 16   h           x   0.35746  0.00099  0.51941  0.01415  0.00654  0.44307
                  y  -0.14226 -0.00044 -0.20705 -0.00573 -0.00262 -0.17825
                  z  -0.00280 -0.00001 -0.00410 -0.00011 -0.00012 -0.00366
 17   c           x   0.00187 -0.00001  0.00207  0.00012  0.00006  0.00388
                  y  -0.01080  0.00005 -0.00457 -0.00083 -0.00046 -0.02515
                  z  -0.00099  0.00000 -0.00038 -0.00008 -0.00004 -0.00232
 18   h           x  -0.02021  0.00008 -0.01032 -0.00134 -0.00074 -0.04478
                  y   0.13918 -0.00068  0.05919  0.01035  0.00562  0.31172
                  z   0.01269 -0.00005  0.00535  0.00099  0.00043  0.02846
 19   c           x   0.01669 -0.00001 -0.02373  0.00089  0.00054  0.03491
                  y   0.01228 -0.00002 -0.01731  0.00075  0.00044  0.02707
                  z   0.00171 -0.00000 -0.00241  0.00010  0.00005  0.00370
 20   h           x  -0.19875  0.00044  0.27592 -0.01095 -0.00633 -0.40707
                  y  -0.15544  0.00056  0.21585 -0.00900 -0.00498 -0.31987
                  z  -0.02114  0.00003  0.02934 -0.00116 -0.00045 -0.04346
 21   c           x  -0.03605  0.00007  0.04631  0.00029  0.00003 -0.01234
                  y   0.01481 -0.00004 -0.01834 -0.00018 -0.00005  0.00241
                  z   0.00035 -0.00000 -0.00038 -0.00001 -0.00001 -0.00014
 22   h           x   0.43250 -0.00092 -0.54241 -0.00342 -0.00050  0.13186
                  y  -0.17353  0.00038  0.21695  0.00145  0.00025 -0.04929
                  z  -0.00374  0.00001  0.00462  0.00003  0.00002 -0.00077
 23   c           x   0.00627  0.00001 -0.00379 -0.00025 -0.00010 -0.00592
                  y  -0.04319 -0.00007  0.01324  0.00165  0.00072  0.04743
                  z  -0.00406 -0.00001  0.00119  0.00016  0.00007  0.00448
 24   h           x  -0.07565 -0.00012  0.02550  0.00281  0.00121  0.07819
                  y   0.51903  0.00074 -0.15827 -0.01911 -0.00836 -0.54635
                  z   0.04874  0.00007 -0.01479 -0.00180 -0.00078 -0.05137

reduced mass(g/mol)     1.084    1.084    1.087    1.087    1.087    1.088


       mode              67       68       69       70       71       72

     frequency        3179.78  3182.35  3183.95  3184.91  3193.08  3197.97

     symmetry            a        a        a        a        a        a   

        IR               YES      YES      YES      YES      YES      YES
|dDIP/dQ|   (a.u.)     0.0044   0.0046   0.0043   0.0031   0.0004   0.0005
intensity (km/mol)      34.92    38.25    32.77    17.29     0.26     0.52
intensity (  %   )      26.34    28.85    24.71    13.04     0.20     0.39
 
       RAMAN             YES      YES      YES      YES      YES      YES
 
  1   h           x   0.01371 -0.13541 -0.22175  0.01153  0.19890 -0.03393
                  y  -0.00057  0.00652  0.01193 -0.00046 -0.01038  0.00209
                  z   0.02736 -0.26961 -0.42181  0.02144  0.38267 -0.06566
  2   c           x  -0.00096  0.00978  0.02103 -0.00122 -0.01821  0.00304
                  y  -0.00001 -0.00012 -0.00136  0.00005  0.00098 -0.00024
                  z  -0.00257  0.02507  0.03685 -0.00185 -0.03485  0.00603
  3   c           x  -0.00149  0.01279 -0.02424  0.00237  0.02064 -0.00330
                  y   0.00048 -0.00404  0.00679 -0.00071 -0.00594  0.00089
                  z   0.00298 -0.02586  0.03582 -0.00388 -0.03283  0.00516
  4   h           x   0.01939 -0.16765  0.25897 -0.02669 -0.22506  0.03566
                  y  -0.00579  0.04906 -0.07476  0.00786  0.06523 -0.01002
                  z  -0.03190  0.27700 -0.41173  0.04306  0.36123 -0.05704
  5   c           x  -0.00502  0.04694  0.00189  0.00282  0.03271 -0.00518
                  y   0.00092 -0.00837 -0.00054 -0.00051 -0.00583  0.00087
                  z  -0.00026  0.00230 -0.00327  0.00032  0.00172 -0.00023
  6   h           x   0.05570 -0.52529 -0.01989 -0.03124 -0.35576  0.05641
                  y  -0.00983  0.09385  0.00384  0.00577  0.06355 -0.01005
                  z   0.00270 -0.02554  0.00379 -0.00180 -0.01747  0.00269
  7   c           x  -0.00114  0.01045  0.02251 -0.00025  0.01650 -0.00308
                  y   0.00005 -0.00044 -0.00186  0.00001 -0.00123  0.00018
                  z  -0.00289  0.02611  0.04001 -0.00001  0.03181 -0.00564
  8   h           x   0.01560 -0.14140 -0.23866  0.00106 -0.18038  0.03241
                  y  -0.00121  0.01011  0.01820  0.00003  0.01358 -0.00211
                  z   0.03108 -0.28190 -0.45648  0.00132 -0.34867  0.06220
  9   c           x  -0.00130  0.01050 -0.02490  0.00107 -0.01883  0.00356
                  y   0.00037 -0.00313  0.00653 -0.00035  0.00506 -0.00106
                  z   0.00268 -0.02228  0.03682 -0.00180  0.03024 -0.00577
 10   h           x   0.01723 -0.14201  0.26578 -0.01245  0.20640 -0.03889
                  y  -0.00460  0.03857 -0.07109  0.00355 -0.05537  0.01079
                  z  -0.02846  0.23540 -0.42157  0.02009 -0.33089  0.06247
 11   c           x  -0.00583  0.04937 -0.00204  0.00095 -0.03490  0.00655
                  y   0.00102 -0.00868  0.00016 -0.00022  0.00613 -0.00129
                  z  -0.00028  0.00234 -0.00340  0.00024 -0.00156  0.00037
 12   h           x   0.06540 -0.55449  0.02399 -0.01097  0.38089 -0.07099
                  y  -0.01139  0.09731 -0.00392  0.00209 -0.06680  0.01279
                  z   0.00319 -0.02680  0.00586 -0.00079  0.01828 -0.00351
 13   h           x  -0.39386 -0.05215  0.01784  0.34960 -0.02796 -0.10276
                  y  -0.31023 -0.04087  0.01376  0.27008 -0.02198 -0.08182
                  z  -0.04280 -0.00564  0.00193  0.03748 -0.00304 -0.01126
 14   c           x   0.03457  0.00466 -0.00166 -0.03256  0.00255  0.00923
                  y   0.02850  0.00368 -0.00117 -0.02308  0.00214  0.00836
                  z   0.00388  0.00051 -0.00017 -0.00328  0.00029  0.00111
 15   c           x   0.03691  0.00420 -0.00016 -0.00754  0.00499  0.02551
                  y  -0.01662 -0.00198  0.00022  0.00565 -0.00165 -0.00787
                  z  -0.00048 -0.00007  0.00001  0.00032 -0.00001  0.00002
 16   h           x  -0.41913 -0.04819  0.00229  0.09210 -0.05301 -0.26532
                  y   0.17070  0.01958 -0.00113 -0.04047  0.02083  0.10337
                  z   0.00367  0.00044  0.00005 -0.00111  0.00037  0.00184
 17   c           x  -0.00250 -0.00053  0.00029  0.00408  0.00175  0.01075
                  y  -0.00521  0.00105 -0.00202 -0.03078 -0.01181 -0.07410
                  z  -0.00058  0.00009 -0.00020 -0.00285 -0.00110 -0.00684
 18   h           x  -0.00337  0.00246 -0.00337 -0.05096 -0.01929 -0.11945
                  y   0.05849 -0.01236  0.02335  0.36109  0.13094  0.83444
                  z   0.00550 -0.00111  0.00233  0.03301  0.01217  0.07631
 19   c           x   0.04026  0.00485  0.00026  0.01452 -0.00525 -0.02577
                  y   0.03347  0.00381  0.00038  0.01477 -0.00377 -0.01771
                  z   0.00449  0.00052  0.00003  0.00189 -0.00053 -0.00251
 20   h           x  -0.46620 -0.05498 -0.00372 -0.17947  0.05584  0.26679
                  y  -0.36996 -0.04301 -0.00317 -0.14599  0.04350  0.20683
                  z  -0.05011 -0.00591 -0.00021 -0.01968  0.00589  0.02818
 21   c           x   0.03081  0.00124  0.00194  0.04202 -0.00341 -0.01233
                  y  -0.01473 -0.00088 -0.00067 -0.01523  0.00153  0.00608
                  z  -0.00050 -0.00005 -0.00001 -0.00020  0.00005  0.00022
 22   h           x  -0.35283 -0.01539 -0.02114 -0.45966  0.03697  0.13392
                  y   0.14468  0.00675  0.00831  0.18173 -0.01496 -0.05506
                  z   0.00338  0.00019  0.00020  0.00372 -0.00034 -0.00130
 23   c           x  -0.00467 -0.00083  0.00039  0.00743 -0.00043 -0.00141
                  y   0.01071  0.00355 -0.00271 -0.05254  0.00313  0.01021
                  z   0.00091  0.00032 -0.00025 -0.00494  0.00029  0.00096
 24   h           x   0.02268  0.00623 -0.00438 -0.08438  0.00490  0.01582
                  y  -0.12457 -0.04007  0.03010  0.58137 -0.03387 -0.10942
                  z  -0.01156 -0.00375  0.00284  0.05460 -0.00319 -0.01029

reduced mass(g/mol)     1.094    1.095    1.095    1.096    1.099    1.097
 

         **************************************************************
         *                                                            *
         *  zero point VIBRATIONAL energy  :      0.2006610  Hartree  *
         *    SCF-energy                   :   -464.7295609           *
         *    SCF + E(vib0)                :   -464.5288999           *
         *                                                            *
         **************************************************************




 time elapsed for vibrational analysis     1.46 sec


    ------------------------------------------------------------------------
         total  cpu-time :  8 hours 38 minutes and 50 seconds
         total wall-time : 18 minutes and 49 seconds
    ------------------------------------------------------------------------

   ****  force : all done  ****


    2020-06-22 19:56:23.256 

